
     Program PWSCF v.6.2 starts on 27Jul2018 at 21:11:14 

     This program is part of the open-source Quantum ESPRESSO suite
     for quantum simulation of materials; please cite
         "P. Giannozzi et al., J. Phys.:Condens. Matter 21 395502 (2009);
         "P. Giannozzi et al., J. Phys.:Condens. Matter 29 465901 (2017);
          URL http://www.quantum-espresso.org", 
     in publications or presentations arising from this work. More details at
     http://www.quantum-espresso.org/quote

     Parallel version (MPI & OpenMP), running on      64 processor cores
     Number of MPI processes:                32
     Threads/MPI process:                     2

     MPI processes distributed on     1 nodes
     R & G space division:  proc/nbgrp/npool/nimage =      32
     Waiting for input...
     Reading input from standard input

     Current dimensions of program PWSCF are:
     Max number of different atomic species (ntypx) = 20
     Max number of k-points (npk) =  40000
     Max angular momentum in pseudopotentials (lmaxx) =  3

     Subspace diagonalization in iterative solution of the eigenvalue problem:
     one sub-group per band group will be used
     scalapack distributed-memory algorithm (size of sub-group:  4*  4 procs)

 
     Parallelization info
     --------------------
     sticks:   dense  smooth     PW     G-vecs:    dense   smooth      PW
     Min          71      71     19                14985    14985    2112
     Max          72      72     20                14995    14995    2124
     Sum        2283    2283    621               479677   479677   67809
 


     bravais-lattice index     =            0
     lattice parameter (alat)  =       6.2737  a.u.
     unit-cell volume          =    2142.8622 (a.u.)^3
     number of atoms/cell      =            4
     number of atomic types    =            1
     number of electrons       =        20.00
     number of Kohn-Sham states=           30
     kinetic-energy cutoff     =     140.0000  Ry
     charge density cutoff     =     560.0000  Ry
     convergence threshold     =      1.0E-09
     mixing beta               =       0.7000
     number of iterations used =            8  plain     mixing
     Exchange-correlation      = PZ ( 1  1  0  0 0 0)

     celldm(1)=   6.273702  celldm(2)=   0.000000  celldm(3)=   0.000000
     celldm(4)=   0.000000  celldm(5)=   0.000000  celldm(6)=   0.000000

     crystal axes: (cart. coord. in units of alat)
               a(1) = (   1.000000   0.000000   0.000000 )  
               a(2) = (   0.000000   1.299858   0.000000 )  
               a(3) = (   0.000000   0.000000   6.676157 )  

     reciprocal axes: (cart. coord. in units 2 pi/alat)
               b(1) = (  1.000000  0.000000  0.000000 )  
               b(2) = (  0.000000  0.769315  0.000000 )  
               b(3) = (  0.000000  0.000000  0.149787 )  


     PseudoPot. # 1 for P  read from file:
     ./P.UPF
     MD5 check sum: 9e9c0d5cfb0fc50679b9fd28a02c9e05
     Pseudo is Norm-conserving + core correction, Zval =  5.0
     Generated using "atomic" code by A. Dal Corso v.6.0 svn rev. 13079
     Using radial grid of 1147 points,  2 beta functions with: 
                l(1) =   0
                l(2) =   1

     atomic species   valence    mass     pseudopotential
       P               5.00    30.97400     P ( 1.00)

      4 Sym. Ops. (no inversion) found ( 2 have fractional translation)


                                    s                        frac. trans.

      isym =  1     identity                                     

 cryst.   s( 1) = (     1          0          0      )
                  (     0          1          0      )
                  (     0          0          1      )

 cart.    s( 1) = (  1.0000000  0.0000000  0.0000000 )
                  (  0.0000000  1.0000000  0.0000000 )
                  (  0.0000000  0.0000000  1.0000000 )


      isym =  2     180 deg rotation - cart. axis [0,0,1]        

 cryst.   s( 2) = (    -1          0          0      )    f =(  0.5000000 )
                  (     0         -1          0      )       (  0.4999999 )
                  (     0          0          1      )       (  0.0000000 )

 cart.    s( 2) = ( -1.0000000  0.0000000  0.0000000 )    f =(  0.5000000 )
                  (  0.0000000 -1.0000000  0.0000000 )       (  0.6499291 )
                  (  0.0000000  0.0000000  1.0000000 )       (  0.0000000 )


      isym =  3     inv. 180 deg rotation - cart. axis [0,1,0]   

 cryst.   s( 3) = (     1          0          0      )    f =(  0.5000000 )
                  (     0         -1          0      )       (  0.4999999 )
                  (     0          0          1      )       (  0.0000000 )

 cart.    s( 3) = (  1.0000000  0.0000000  0.0000000 )    f =(  0.5000000 )
                  (  0.0000000 -1.0000000  0.0000000 )       (  0.6499291 )
                  (  0.0000000  0.0000000  1.0000000 )       (  0.0000000 )


      isym =  4     inv. 180 deg rotation - cart. axis [1,0,0]   

 cryst.   s( 4) = (    -1          0          0      )
                  (     0          1          0      )
                  (     0          0          1      )

 cart.    s( 4) = ( -1.0000000  0.0000000  0.0000000 )
                  (  0.0000000  1.0000000  0.0000000 )
                  (  0.0000000  0.0000000  1.0000000 )


   Cartesian axes

     site n.     atom                  positions (alat units)
         1          P    tau(   1) = (   0.5000000   0.5432110   1.2355230  )
         2          P    tau(   2) = (   0.5000000   0.7566476   1.8874023  )
         3          P    tau(   3) = (   0.0000000   1.1931401   1.8874023  )
         4          P    tau(   4) = (   0.0000000   0.1067183   1.2355230  )

   Crystallographic axes

     site n.     atom                  positions (cryst. coord.)
         1          P    tau(   1) = (  0.5000000  0.4179001  0.1850650  )
         2          P    tau(   2) = (  0.5000000  0.5821000  0.2827079  )
         3          P    tau(   3) = (  0.0000000  0.9179000  0.2827079  )
         4          P    tau(   4) = (  0.0000000  0.0821000  0.1850650  )

     number of k points=    36  gaussian smearing, width (Ry)=  0.0010
                       cart. coord. in units 2pi/alat
        k(    1) = (   0.5000000   0.0000000   0.0000000), wk =   0.0555556
        k(    2) = (   0.4750000   0.0000000   0.0000000), wk =   0.0555556
        k(    3) = (   0.4500000   0.0000000   0.0000000), wk =   0.0555556
        k(    4) = (   0.4250000   0.0000000   0.0000000), wk =   0.0555556
        k(    5) = (   0.4000000   0.0000000   0.0000000), wk =   0.0555556
        k(    6) = (   0.3750000   0.0000000   0.0000000), wk =   0.0555556
        k(    7) = (   0.3500000   0.0000000   0.0000000), wk =   0.0555556
        k(    8) = (   0.3250000   0.0000000   0.0000000), wk =   0.0555556
        k(    9) = (   0.3000000   0.0000000   0.0000000), wk =   0.0555556
        k(   10) = (   0.2750000   0.0000000   0.0000000), wk =   0.0555556
        k(   11) = (   0.2500000   0.0000000   0.0000000), wk =   0.0555556
        k(   12) = (   0.2250000   0.0000000   0.0000000), wk =   0.0555556
        k(   13) = (   0.2000000   0.0000000   0.0000000), wk =   0.0555556
        k(   14) = (   0.1750000   0.0000000   0.0000000), wk =   0.0555556
        k(   15) = (   0.1500000   0.0000000   0.0000000), wk =   0.0555556
        k(   16) = (   0.1250000   0.0000000   0.0000000), wk =   0.0555556
        k(   17) = (   0.1000000   0.0000000   0.0000000), wk =   0.0555556
        k(   18) = (   0.0750000   0.0000000   0.0000000), wk =   0.0555556
        k(   19) = (   0.0500000   0.0000000   0.0000000), wk =   0.0555556
        k(   20) = (   0.0250000   0.0000000   0.0000000), wk =   0.0555556
        k(   21) = (   0.0000000   0.0000000   0.0000000), wk =   0.0555556
        k(   22) = (   0.0000000   0.0256436   0.0000000), wk =   0.0555556
        k(   23) = (   0.0000000   0.0512879   0.0000000), wk =   0.0555556
        k(   24) = (   0.0000000   0.0769315   0.0000000), wk =   0.0555556
        k(   25) = (   0.0000000   0.1025750   0.0000000), wk =   0.0555556
        k(   26) = (   0.0000000   0.1282193   0.0000000), wk =   0.0555556
        k(   27) = (   0.0000000   0.1538629   0.0000000), wk =   0.0555556
        k(   28) = (   0.0000000   0.1795065   0.0000000), wk =   0.0555556
        k(   29) = (   0.0000000   0.2051508   0.0000000), wk =   0.0555556
        k(   30) = (   0.0000000   0.2307944   0.0000000), wk =   0.0555556
        k(   31) = (   0.0000000   0.2564379   0.0000000), wk =   0.0555556
        k(   32) = (   0.0000000   0.2820823   0.0000000), wk =   0.0555556
        k(   33) = (   0.0000000   0.3077258   0.0000000), wk =   0.0555556
        k(   34) = (   0.0000000   0.3333694   0.0000000), wk =   0.0555556
        k(   35) = (   0.0000000   0.3590137   0.0000000), wk =   0.0555556
        k(   36) = (   0.0000000   0.3846573   0.0000000), wk =   0.0555556

                       cryst. coord.
        k(    1) = (   0.5000000   0.0000000   0.0000000), wk =   0.0555556
        k(    2) = (   0.4750000   0.0000000   0.0000000), wk =   0.0555556
        k(    3) = (   0.4500000   0.0000000   0.0000000), wk =   0.0555556
        k(    4) = (   0.4250000   0.0000000   0.0000000), wk =   0.0555556
        k(    5) = (   0.4000000   0.0000000   0.0000000), wk =   0.0555556
        k(    6) = (   0.3750000   0.0000000   0.0000000), wk =   0.0555556
        k(    7) = (   0.3500000   0.0000000   0.0000000), wk =   0.0555556
        k(    8) = (   0.3250000   0.0000000   0.0000000), wk =   0.0555556
        k(    9) = (   0.3000000   0.0000000   0.0000000), wk =   0.0555556
        k(   10) = (   0.2750000   0.0000000   0.0000000), wk =   0.0555556
        k(   11) = (   0.2500000   0.0000000   0.0000000), wk =   0.0555556
        k(   12) = (   0.2250000   0.0000000   0.0000000), wk =   0.0555556
        k(   13) = (   0.2000000   0.0000000   0.0000000), wk =   0.0555556
        k(   14) = (   0.1750000   0.0000000   0.0000000), wk =   0.0555556
        k(   15) = (   0.1500000   0.0000000   0.0000000), wk =   0.0555556
        k(   16) = (   0.1250000   0.0000000   0.0000000), wk =   0.0555556
        k(   17) = (   0.1000000   0.0000000   0.0000000), wk =   0.0555556
        k(   18) = (   0.0750000   0.0000000   0.0000000), wk =   0.0555556
        k(   19) = (   0.0500000   0.0000000   0.0000000), wk =   0.0555556
        k(   20) = (   0.0250000   0.0000000   0.0000000), wk =   0.0555556
        k(   21) = (   0.0000000   0.0000000   0.0000000), wk =   0.0555556
        k(   22) = (   0.0000000   0.0333330   0.0000000), wk =   0.0555556
        k(   23) = (   0.0000000   0.0666670   0.0000000), wk =   0.0555556
        k(   24) = (   0.0000000   0.1000000   0.0000000), wk =   0.0555556
        k(   25) = (   0.0000000   0.1333330   0.0000000), wk =   0.0555556
        k(   26) = (   0.0000000   0.1666670   0.0000000), wk =   0.0555556
        k(   27) = (   0.0000000   0.2000000   0.0000000), wk =   0.0555556
        k(   28) = (   0.0000000   0.2333330   0.0000000), wk =   0.0555556
        k(   29) = (   0.0000000   0.2666670   0.0000000), wk =   0.0555556
        k(   30) = (   0.0000000   0.3000000   0.0000000), wk =   0.0555556
        k(   31) = (   0.0000000   0.3333330   0.0000000), wk =   0.0555556
        k(   32) = (   0.0000000   0.3666670   0.0000000), wk =   0.0555556
        k(   33) = (   0.0000000   0.4000000   0.0000000), wk =   0.0555556
        k(   34) = (   0.0000000   0.4333330   0.0000000), wk =   0.0555556
        k(   35) = (   0.0000000   0.4666670   0.0000000), wk =   0.0555556
        k(   36) = (   0.0000000   0.5000000   0.0000000), wk =   0.0555556

     Dense  grid:   479677 G-vectors     FFT dimensions: (  48,  64, 320)

     Dynamical RAM for                 wfc:       0.86 MB

     Dynamical RAM for     wfc (w. buffer):      31.72 MB

     Dynamical RAM for           str. fact:       0.23 MB

     Dynamical RAM for           local pot:       0.00 MB

     Dynamical RAM for          nlocal pot:       0.46 MB

     Dynamical RAM for                qrad:       0.16 MB

     Dynamical RAM for          rho,v,vnew:       1.39 MB

     Dynamical RAM for               rhoin:       0.46 MB

     Dynamical RAM for            rho*nmix:       3.66 MB

     Dynamical RAM for           G-vectors:       0.97 MB

     Dynamical RAM for          h,s,v(r/c):       0.04 MB

     Dynamical RAM for          <psi|beta>:       0.01 MB

     Dynamical RAM for                 psi:       3.43 MB

     Dynamical RAM for                hpsi:       3.43 MB

     Dynamical RAM for      wfcinit/wfcrot:       1.74 MB

     Estimated static dynamical RAM per process >      40.69 MB

     Estimated max dynamical RAM per process >      47.59 MB

     Estimated total dynamical RAM >       1.49 GB

     Initial potential from superposition of free atoms

     starting charge   19.99943, renormalised to   20.00000

     negative rho (up, down):  1.936E-06 0.000E+00
     Starting wfc are   16 randomized atomic wfcs +   14 random wfc

     total cpu time spent up to now is        2.4 secs

     Self-consistent Calculation

     iteration #  1     ecut=   140.00 Ry     beta= 0.70
     Davidson diagonalization with overlap
     ethr =  1.00E-02,  avg # of iterations =  8.2

     Threshold (ethr) on eigenvalues was too large:
     Diagonalizing with lowered threshold

     Davidson diagonalization with overlap
     ethr =  5.11E-04,  avg # of iterations =  1.2

     total cpu time spent up to now is       18.2 secs

     total energy              =     -86.79243888 Ry
     Harris-Foulkes estimate   =     -86.83330263 Ry
     estimated scf accuracy    <       0.10112465 Ry

     iteration #  2     ecut=   140.00 Ry     beta= 0.70
     Davidson diagonalization with overlap
     ethr =  5.06E-04,  avg # of iterations =  3.2

     total cpu time spent up to now is       23.4 secs

     total energy              =     -86.79459351 Ry
     Harris-Foulkes estimate   =     -86.80678723 Ry
     estimated scf accuracy    <       0.01878634 Ry

     iteration #  3     ecut=   140.00 Ry     beta= 0.70
     Davidson diagonalization with overlap
     ethr =  9.39E-05,  avg # of iterations =  3.3

     total cpu time spent up to now is       30.1 secs

     total energy              =     -86.79857770 Ry
     Harris-Foulkes estimate   =     -86.80582309 Ry
     estimated scf accuracy    <       0.01553491 Ry

     iteration #  4     ecut=   140.00 Ry     beta= 0.70
     Davidson diagonalization with overlap
     ethr =  7.77E-05,  avg # of iterations =  2.2

     total cpu time spent up to now is       34.7 secs

     total energy              =     -86.80169158 Ry
     Harris-Foulkes estimate   =     -86.80173664 Ry
     estimated scf accuracy    <       0.00009893 Ry

     iteration #  5     ecut=   140.00 Ry     beta= 0.70
     Davidson diagonalization with overlap
     ethr =  4.95E-07,  avg # of iterations =  5.6

     total cpu time spent up to now is       42.0 secs

     total energy              =     -86.80172853 Ry
     Harris-Foulkes estimate   =     -86.80173022 Ry
     estimated scf accuracy    <       0.00000369 Ry

     iteration #  6     ecut=   140.00 Ry     beta= 0.70
     Davidson diagonalization with overlap
     ethr =  1.85E-08,  avg # of iterations =  2.0

     total cpu time spent up to now is       46.6 secs

     total energy              =     -86.80172880 Ry
     Harris-Foulkes estimate   =     -86.80172930 Ry
     estimated scf accuracy    <       0.00000054 Ry

     iteration #  7     ecut=   140.00 Ry     beta= 0.70
     Davidson diagonalization with overlap
     ethr =  2.72E-09,  avg # of iterations =  1.8

     total cpu time spent up to now is       51.1 secs

     total energy              =     -86.80172848 Ry
     Harris-Foulkes estimate   =     -86.80172979 Ry
     estimated scf accuracy    <       0.00000565 Ry

     iteration #  8     ecut=   140.00 Ry     beta= 0.70
     Davidson diagonalization with overlap
     ethr =  2.72E-09,  avg # of iterations =  1.3

     total cpu time spent up to now is       55.3 secs

     total energy              =     -86.80172910 Ry
     Harris-Foulkes estimate   =     -86.80172910 Ry
     estimated scf accuracy    <          4.7E-09 Ry

     iteration #  9     ecut=   140.00 Ry     beta= 0.70
     Davidson diagonalization with overlap
     ethr =  2.33E-11,  avg # of iterations =  2.2

     total cpu time spent up to now is       60.3 secs

     End of self-consistent calculation

          k = 0.5000 0.0000 0.0000 ( 59984 PWs)   bands (ev):

   -14.4617 -14.4617 -11.8098 -11.8098  -6.7759  -6.7759  -4.8051  -4.8051
    -4.2519  -4.2519  -0.8750  -0.8750  -0.3135  -0.3135   1.0208   1.0208
     4.5112   4.5112   5.4774   5.4774   5.9367   5.9367   6.4043   6.4043
     6.7007   6.7007   7.8076   7.8077   7.8435   7.8435

     occupation numbers 
     1.0000   1.0000   1.0000   1.0000   1.0000   1.0000   1.0000   1.0000
     1.0000   1.0000   0.0000   0.0000   0.0000   0.0000   0.0000   0.0000
     0.0000   0.0000   0.0000   0.0000   0.0000   0.0000   0.0000   0.0000
     0.0000   0.0000   0.0000   0.0000   0.0000   0.0000

          k = 0.4750 0.0000 0.0000 ( 59982 PWs)   bands (ev):

   -14.7267 -14.1878 -12.0966 -11.5102  -6.8442  -6.7357  -4.9019  -4.7353
    -4.3097  -4.1530  -0.8940  -0.8054  -0.5311  -0.0770   0.7824   1.2688
     4.4554   4.5189   5.1592   5.7065   5.8108   6.1723   6.1946   6.3788
     6.6985   7.0357   7.5302   7.5921   8.0715   8.0817

     occupation numbers 
     1.0000   1.0000   1.0000   1.0000   1.0000   1.0000   1.0000   1.0000
     1.0000   1.0000   0.0000   0.0000   0.0000   0.0000   0.0000   0.0000
     0.0000   0.0000   0.0000   0.0000   0.0000   0.0000   0.0000   0.0000
     0.0000   0.0000   0.0000   0.0000   0.0000   0.0000

          k = 0.4500 0.0000 0.0000 ( 59950 PWs)   bands (ev):

   -14.9819 -13.9064 -12.3704 -11.1985  -6.9319  -6.7296  -5.0207  -4.6957
    -4.3231  -4.0202  -0.8577  -0.7257  -0.6942   0.1753   0.5583   1.5233
     4.3815   4.4541   4.8566   5.4795   6.0449   6.0717   6.1588   6.4784
     7.0232   7.2726   7.3327   7.3804   8.2558   8.2796

     occupation numbers 
     1.0000   1.0000   1.0000   1.0000   1.0000   1.0000   1.0000   1.0000
     1.0000   1.0000   0.0000   0.0000   0.0000   0.0000   0.0000   0.0000
     0.0000   0.0000   0.0000   0.0000   0.0000   0.0000   0.0000   0.0000
     0.0000   0.0000   0.0000   0.0000   0.0000   0.0000

          k = 0.4250 0.0000 0.0000 ( 59950 PWs)   bands (ev):

   -15.2262 -13.6191 -12.6307 -10.8752  -7.0294  -6.7585  -5.1554  -4.6864
    -4.2947  -3.8618  -0.8929  -0.7648  -0.5564   0.3583   0.4402   1.7810
     4.3114   4.3200   4.5700   5.2372   5.7801   6.0199   6.5202   6.7598
     7.0550   7.0748   7.3492   7.7244   8.1867   8.3864

     occupation numbers 
     1.0000   1.0000   1.0000   1.0000   1.0000   1.0000   1.0000   1.0000
     1.0000   1.0000   0.0000   0.0000   0.0000   0.0000   0.0000   0.0000
     0.0000   0.0000   0.0000   0.0000   0.0000   0.0000   0.0000   0.0000
     0.0000   0.0000   0.0000   0.0000   0.0000   0.0000

          k = 0.4000 0.0000 0.0000 ( 59964 PWs)   bands (ev):

   -15.4591 -13.3280 -12.8773 -10.5411  -7.1281  -6.8185  -5.3002  -4.7045
    -4.2335  -3.6858  -1.0268  -0.6176  -0.4267   0.2119   0.7147   2.0385
     4.1420   4.2600   4.2995   4.9883   5.5045   6.0259   6.8238   6.8917
     6.9051   6.9110   7.5710   8.0299   8.0315   8.4939

     occupation numbers 
     1.0000   1.0000   1.0000   1.0000   1.0000   1.0000   1.0000   1.0000
     1.0000   1.0000   0.0000   0.0000   0.0000   0.0000   0.0000   0.0000
     0.0000   0.0000   0.0000   0.0000   0.0000   0.0000   0.0000   0.0000
     0.0000   0.0000   0.0000   0.0000   0.0000   0.0000

          k = 0.3750 0.0000 0.0000 ( 59944 PWs)   bands (ev):

   -15.6798 -13.1099 -13.0356 -10.1973  -7.2204  -6.9023  -5.4501  -4.7445
    -4.1530  -3.4994  -1.1209  -0.4210  -0.3894   0.1981   0.9958   2.2918
     3.9446   4.0452   4.2374   4.7440   5.2452   5.9792   6.5830   6.5906
     6.8794   7.2617   7.7665   8.2123   8.2913   8.3978

     occupation numbers 
     1.0000   1.0000   1.0000   1.0000   1.0000   1.0000   1.0000   1.0000
     1.0000   1.0000   0.0000   0.0000   0.0000   0.0000   0.0000   0.0000
     0.0000   0.0000   0.0000   0.0000   0.0000   0.0000   0.0000   0.0000
     0.0000   0.0000   0.0000   0.0000   0.0000   0.0000

          k = 0.3500 0.0000 0.0000 ( 59980 PWs)   bands (ev):

   -15.8880 -13.3282 -12.7450  -9.8449  -7.2996  -7.0022  -5.6011  -4.8001
    -4.0683  -3.3090  -1.1678  -0.4818  -0.1811   0.3499   1.2803   2.5353
     3.7428   3.8073   4.2513   4.5102   5.0023   5.8577   6.0095   6.3543
     6.9412   7.5364   8.1058   8.1343   8.2010   8.2690

     occupation numbers 
     1.0000   1.0000   1.0000   1.0000   1.0000   1.0000   1.0000   1.0000
     1.0000   1.0000   0.0000   0.0000   0.0000   0.0000   0.0000   0.0000
     0.0000   0.0000   0.0000   0.0000   0.0000   0.0000   0.0000   0.0000
     0.0000   0.0000   0.0000   0.0000   0.0000   0.0000

          k = 0.3250 0.0000 0.0000 ( 59986 PWs)   bands (ev):

   -16.0831 -13.5322 -12.4599  -9.4857  -7.3594  -7.1112  -5.7497  -4.8643
    -3.9931  -3.1202  -1.1606  -0.6269   0.0955   0.5866   1.5650   2.7619
     3.5452   3.5859   4.2897   4.3070   4.7761   5.3702   5.6957   6.1389
     7.0147   7.2263   8.0096   8.2120   8.2382   8.3118

     occupation numbers 
     1.0000   1.0000   1.0000   1.0000   1.0000   1.0000   1.0000   1.0000
     1.0000   1.0000   0.0000   0.0000   0.0000   0.0000   0.0000   0.0000
     0.0000   0.0000   0.0000   0.0000   0.0000   0.0000   0.0000   0.0000
     0.0000   0.0000   0.0000   0.0000   0.0000   0.0000

          k = 0.3000 0.0000 0.0000 ( 59970 PWs)   bands (ev):

   -16.2649 -13.7216 -12.1849  -9.1220  -7.3939  -7.2239  -5.8934  -4.9307
    -3.9377  -2.9380  -1.0953  -0.7812   0.4023   0.8609   1.8462   2.9613
     3.3562   3.3814   4.0838   4.3985   4.5665   4.7336   5.5223   5.9377
     6.6560   7.0250   7.8262   8.2324   8.2915   8.5311

     occupation numbers 
     1.0000   1.0000   1.0000   1.0000   1.0000   1.0000   1.0000   1.0000
     1.0000   1.0000   0.0000   0.0000   0.0000   0.0000   0.0000   0.0000
     0.0000   0.0000   0.0000   0.0000   0.0000   0.0000   0.0000   0.0000
     0.0000   0.0000   0.0000   0.0000   0.0000   0.0000

          k = 0.2750 0.0000 0.0000 ( 59956 PWs)   bands (ev):

   -16.4330 -13.8963 -11.9251  -8.7567  -7.3976  -7.3359  -6.0302  -4.9929
    -3.9068  -2.7668  -0.9719  -0.9313   0.7324   1.1560   2.1173   3.1181
     3.1787   3.1939   3.8934   4.0632   4.3737   4.5874   5.3514   5.7511
     6.0954   6.9526   7.6530   8.1358   8.3350   8.6059

     occupation numbers 
     1.0000   1.0000   1.0000   1.0000   1.0000   1.0000   1.0000   1.0000
     1.0000   1.0000   0.0000   0.0000   0.0000   0.0000   0.0000   0.0000
     0.0000   0.0000   0.0000   0.0000   0.0000   0.0000   0.0000   0.0000
     0.0000   0.0000   0.0000   0.0000   0.0000   0.0000

          k = 0.2500 0.0000 0.0000 ( 59948 PWs)   bands (ev):

   -16.5871 -14.0561 -11.6857  -8.3944  -7.4443  -7.3654  -6.1585  -5.0446
    -3.8999  -2.6100  -1.0724  -0.7953   1.0774   1.4632   2.3523   3.0142
     3.0243   3.2092   3.4821   3.7188   4.1978   4.7853   5.1889   5.5795
     5.5962   6.8223   7.4912   7.9623   8.4063   8.8577

     occupation numbers 
     1.0000   1.0000   1.0000   1.0000   1.0000   1.0000   1.0000   1.0000
     1.0000   1.0000   0.0000   0.0000   0.0000   0.0000   0.0000   0.0000
     0.0000   0.0000   0.0000   0.0000   0.0000   0.0000   0.0000   0.0000
     0.0000   0.0000   0.0000   0.0000   0.0000   0.0000

          k = 0.2250 0.0000 0.0000 ( 59966 PWs)   bands (ev):

   -16.7272 -14.2010 -11.4717  -8.0410  -7.5467  -7.2934  -6.2771  -5.0790
    -3.9125  -2.4704  -1.2023  -0.5740   1.4230   1.7751   2.3877   2.8638
     2.8743   3.1163   3.2054   3.5604   4.0390   5.0352   5.0380   5.2033
     5.4231   6.6594   7.3416   7.7841   8.5128   9.1786

     occupation numbers 
     1.0000   1.0000   1.0000   1.0000   1.0000   1.0000   1.0000   1.0000
     1.0000   1.0000   0.0000   0.0000   0.0000   0.0000   0.0000   0.0000
     0.0000   0.0000   0.0000   0.0000   0.0000   0.0000   0.0000   0.0000
     0.0000   0.0000   0.0000   0.0000   0.0000   0.0000

          k = 0.2000 0.0000 0.0000 ( 59990 PWs)   bands (ev):

   -16.8529 -14.3309 -11.2871  -7.7053  -7.6414  -7.1797  -6.3851  -5.0881
    -3.9388  -2.3497  -1.3199  -0.3178   1.7340   1.9858   2.0807   2.7282
     2.7501   3.1047   3.2168   3.4183   3.8975   4.9000   4.9537   5.2819
     5.3263   6.4767   7.2047   7.6154   8.6568   9.5234

     occupation numbers 
     1.0000   1.0000   1.0000   1.0000   1.0000   1.0000   1.0000   1.0000
     1.0000   1.0000   0.0000   0.0000   0.0000   0.0000   0.0000   0.0000
     0.0000   0.0000   0.0000   0.0000   0.0000   0.0000   0.0000   0.0000
     0.0000   0.0000   0.0000   0.0000   0.0000   0.0000

          k = 0.1750 0.0000 0.0000 ( 59969 PWs)   bands (ev):

   -16.9641 -14.4457 -11.1336  -7.7271  -7.3984  -7.0258  -6.4817  -5.0627
    -3.9730  -2.2487  -1.4246  -0.0372   1.4500   1.9071   2.3392   2.6077
     2.6866   3.0204   3.2926   3.4898   3.7738   4.7755   4.8393   5.1558
     5.6503   6.2799   7.0809   7.4609   8.8346   9.7063

     occupation numbers 
     1.0000   1.0000   1.0000   1.0000   1.0000   1.0000   1.0000   1.0000
     1.0000   1.0000   0.0000   0.0000   0.0000   0.0000   0.0000   0.0000
     0.0000   0.0000   0.0000   0.0000   0.0000   0.0000   0.0000   0.0000
     0.0000   0.0000   0.0000   0.0000   0.0000   0.0000

          k = 0.1500 0.0000 0.0000 ( 59967 PWs)   bands (ev):

   -17.0608 -14.5453 -11.0110  -7.8029  -7.1335  -6.8371  -6.5664  -4.9936
    -4.0103  -2.1673  -1.5159   0.2574   0.9160   1.7960   2.4070   2.5027
     2.8205   3.1493   3.1835   3.6692   3.8079   4.6646   4.8134   5.0447
     5.9969   6.0725   6.9703   7.3232   9.0042   9.3378

     occupation numbers 
     1.0000   1.0000   1.0000   1.0000   1.0000   1.0000   1.0000   1.0000
     1.0000   1.0000   0.0000   0.0000   0.0000   0.0000   0.0000   0.0000
     0.0000   0.0000   0.0000   0.0000   0.0000   0.0000   0.0000   0.0000
     0.0000   0.0000   0.0000   0.0000   0.0000   0.0000

          k = 0.1250 0.0000 0.0000 ( 59967 PWs)   bands (ev):

   -17.1427 -14.6297 -10.9166  -7.8680  -6.9217  -6.6387  -6.6232  -4.8764
    -4.0469  -2.1053  -1.5936   0.4143   0.5549   1.4829   2.3524   2.4134
     3.0720   3.0908   3.4550   3.5881   4.1487   4.5671   4.8382   4.9481
     5.8590   6.3529   6.8730   7.2046   8.7548   9.3665

     occupation numbers 
     1.0000   1.0000   1.0000   1.0000   1.0000   1.0000   1.0000   1.0000
     1.0000   1.0000   0.0000   0.0000   0.0000   0.0000   0.0000   0.0000
     0.0000   0.0000   0.0000   0.0000   0.0000   0.0000   0.0000   0.0000
     0.0000   0.0000   0.0000   0.0000   0.0000   0.0000

          k = 0.1000 0.0000 0.0000 ( 59967 PWs)   bands (ev):

   -17.2099 -14.6988 -10.8470  -7.9220  -6.7668  -6.6983  -6.3984  -4.7174
    -4.0799  -2.0622  -1.6574  -0.0371   0.8424   1.1158   2.2894   2.3399
     3.0148   3.2936   3.5550   3.8096   4.4823   4.5021   4.8654   4.9036
     5.6481   6.6970   6.7894   7.1065   8.2831   9.3178

     occupation numbers 
     1.0000   1.0000   1.0000   1.0000   1.0000   1.0000   1.0000   1.0000
     1.0000   1.0000   0.0000   0.0000   0.0000   0.0000   0.0000   0.0000
     0.0000   0.0000   0.0000   0.0000   0.0000   0.0000   0.0000   0.0000
     0.0000   0.0000   0.0000   0.0000   0.0000   0.0000

          k = 0.0750 0.0000 0.0000 ( 59973 PWs)   bands (ev):

   -17.2622 -14.7526 -10.7979  -7.9643  -6.7449  -6.6632  -6.1818  -4.5374
    -4.1074  -2.0373  -1.7071  -0.4197   0.7672   1.1040   2.2367   2.2821
     2.9552   3.3679   3.6578   4.1322   4.4100   4.7962   4.8552   5.0309
     5.4534   6.7205   6.9892   7.0299   7.7964   8.9772

     occupation numbers 
     1.0000   1.0000   1.0000   1.0000   1.0000   1.0000   1.0000   1.0000
     1.0000   1.0000   0.0000   0.0000   0.0000   0.0000   0.0000   0.0000
     0.0000   0.0000   0.0000   0.0000   0.0000   0.0000   0.0000   0.0000
     0.0000   0.0000   0.0000   0.0000   0.0000   0.0000

          k = 0.0500 0.0000 0.0000 ( 59947 PWs)   bands (ev):

   -17.2996 -14.7911 -10.7657  -7.9947  -6.7783  -6.6000  -5.9973  -4.3685
    -4.1280  -2.0289  -1.7427  -0.7124   0.4799   1.3191   2.1980   2.2401
     2.9123   3.3527   3.8212   4.3515   4.3542   4.7409   5.1840   5.2573
     5.2933   6.6682   6.9751   7.1605   7.3236   8.7988

     occupation numbers 
     1.0000   1.0000   1.0000   1.0000   1.0000   1.0000   1.0000   1.0000
     1.0000   1.0000   0.0000   0.0000   0.0000   0.0000   0.0000   0.0000
     0.0000   0.0000   0.0000   0.0000   0.0000   0.0000   0.0000   0.0000
     0.0000   0.0000   0.0000   0.0000   0.0000   0.0000

          k = 0.0250 0.0000 0.0000 ( 59943 PWs)   bands (ev):

   -17.3221 -14.8141 -10.7476  -8.0131  -6.7984  -6.5666  -5.8712  -4.2466
    -4.1406  -2.0311  -1.7641  -0.8957   0.2889   1.4637   2.1745   2.2143
     2.8862   3.3350   3.9404   4.3112   4.4620   4.7027   5.1875   5.4406
     5.5501   6.6350   6.9088   6.9422   7.1770   8.8445

     occupation numbers 
     1.0000   1.0000   1.0000   1.0000   1.0000   1.0000   1.0000   1.0000
     1.0000   1.0000   0.0000   0.0000   0.0000   0.0000   0.0000   0.0000
     0.0000   0.0000   0.0000   0.0000   0.0000   0.0000   0.0000   0.0000
     0.0000   0.0000   0.0000   0.0000   0.0000   0.0000

          k = 0.0000 0.0000 0.0000 ( 59965 PWs)   bands (ev):

   -17.3296 -14.8218 -10.7417  -8.0192  -6.8051  -6.5563  -5.8261  -4.2019
    -4.1449  -2.0338  -1.7713  -0.9578   0.2216   1.5151   2.1666   2.2055
     2.8774   3.3284   3.9838   4.2964   4.4920   4.6885   5.1505   5.5438
     5.7194   6.6235   6.7047   6.9313   7.1506   8.9797

     occupation numbers 
     1.0000   1.0000   1.0000   1.0000   1.0000   1.0000   1.0000   1.0000
     1.0000   1.0000   0.0000   0.0000   0.0000   0.0000   0.0000   0.0000
     0.0000   0.0000   0.0000   0.0000   0.0000   0.0000   0.0000   0.0000
     0.0000   0.0000   0.0000   0.0000   0.0000   0.0000

          k = 0.0000 0.0256 0.0000 ( 59987 PWs)   bands (ev):

   -17.3232 -14.8257 -10.7595  -8.0442  -6.7700  -6.5662  -5.8211  -4.2041
    -4.0987  -2.1554  -1.6565  -0.9534   0.2115   1.5000   2.1850   2.2145
     2.8862   3.3403   3.9330   4.2182   4.4668   4.6990   5.2359   5.5838
     5.7294   6.6234   6.7409   6.9453   7.1107   9.0112

     occupation numbers 
     1.0000   1.0000   1.0000   1.0000   1.0000   1.0000   1.0000   1.0000
     1.0000   1.0000   0.0000   0.0000   0.0000   0.0000   0.0000   0.0000
     0.0000   0.0000   0.0000   0.0000   0.0000   0.0000   0.0000   0.0000
     0.0000   0.0000   0.0000   0.0000   0.0000   0.0000

          k = 0.0000 0.0513 0.0000 ( 59967 PWs)   bands (ev):

   -17.3040 -14.8376 -10.8096  -8.1191  -6.6675  -6.5887  -5.8062  -4.2107
    -3.9680  -2.3610  -1.4708  -0.9398   0.1812   1.4565   2.2390   2.2412
     2.9124   3.3763   3.7958   4.0049   4.4705   4.7304   5.3387   5.6894
     5.8153   6.6147   6.8472   6.9879   7.0098   8.6660

     occupation numbers 
     1.0000   1.0000   1.0000   1.0000   1.0000   1.0000   1.0000   1.0000
     1.0000   1.0000   0.0000   0.0000   0.0000   0.0000   0.0000   0.0000
     0.0000   0.0000   0.0000   0.0000   0.0000   0.0000   0.0000   0.0000
     0.0000   0.0000   0.0000   0.0000   0.0000   0.0000

          k = 0.0000 0.0769 0.0000 ( 59983 PWs)   bands (ev):

   -17.2721 -14.8583 -10.8839  -8.2421  -6.6084  -6.5056  -5.7814  -4.2221
    -3.7713  -2.5851  -1.2781  -0.9156   0.1299   1.3900   2.2856   2.3251
     2.9555   3.4361   3.6020   3.7463   4.5078   4.7823   5.3194   5.8332
     6.0282   6.5604   6.9062   7.0180   7.0608   8.3361

     occupation numbers 
     1.0000   1.0000   1.0000   1.0000   1.0000   1.0000   1.0000   1.0000
     1.0000   1.0000   0.0000   0.0000   0.0000   0.0000   0.0000   0.0000
     0.0000   0.0000   0.0000   0.0000   0.0000   0.0000   0.0000   0.0000
     0.0000   0.0000   0.0000   0.0000   0.0000   0.0000

          k = 0.0000 0.1026 0.0000 ( 59961 PWs)   bands (ev):

   -17.2278 -14.8892 -10.9713  -8.4075  -6.6122  -6.2947  -5.7470  -4.2388
    -3.5298  -2.8188  -1.0878  -0.8765   0.0571   1.3082   2.3472   2.4388
     3.0137   3.3763   3.4866   3.5196   4.5671   4.8539   5.2323   5.9943
     6.2877   6.4131   6.8660   7.1648   7.2448   7.9981

     occupation numbers 
     1.0000   1.0000   1.0000   1.0000   1.0000   1.0000   1.0000   1.0000
     1.0000   1.0000   0.0000   0.0000   0.0000   0.0000   0.0000   0.0000
     0.0000   0.0000   0.0000   0.0000   0.0000   0.0000   0.0000   0.0000
     0.0000   0.0000   0.0000   0.0000   0.0000   0.0000

          k = 0.0000 0.1282 0.0000 ( 59975 PWs)   bands (ev):

   -17.1711 -14.9319 -11.0606  -8.6061  -6.5935  -6.0455  -5.7033  -4.2616
    -3.2628  -3.0586  -0.9242  -0.7972  -0.0369   1.2192   2.4251   2.5748
     3.0710   3.1350   3.2551   3.6261   4.6455   4.9438   5.1284   6.1613
     6.2016   6.5344   6.8638   7.2865   7.5176   7.6783

     occupation numbers 
     1.0000   1.0000   1.0000   1.0000   1.0000   1.0000   1.0000   1.0000
     1.0000   1.0000   0.0000   0.0000   0.0000   0.0000   0.0000   0.0000
     0.0000   0.0000   0.0000   0.0000   0.0000   0.0000   0.0000   0.0000
     0.0000   0.0000   0.0000   0.0000   0.0000   0.0000

          k = 0.0000 0.1539 0.0000 ( 59959 PWs)   bands (ev):

   -17.1024 -14.9877 -11.1415  -8.8276  -6.5514  -5.7679  -5.6507  -4.2911
    -3.3020  -2.9874  -0.8337  -0.6305  -0.1497   1.1311   2.5168   2.7285
     2.8886   2.9603   3.2246   3.7547   4.7422   5.0315   5.0483   5.9694
     6.3299   6.7453   6.8235   7.3565   7.4302   7.8248

     occupation numbers 
     1.0000   1.0000   1.0000   1.0000   1.0000   1.0000   1.0000   1.0000
     1.0000   1.0000   0.0000   0.0000   0.0000   0.0000   0.0000   0.0000
     0.0000   0.0000   0.0000   0.0000   0.0000   0.0000   0.0000   0.0000
     0.0000   0.0000   0.0000   0.0000   0.0000   0.0000

          k = 0.0000 0.1795 0.0000 ( 59945 PWs)   bands (ev):

   -17.0220 -15.0580 -11.2059  -9.0625  -6.4872  -5.5897  -5.4705  -4.3282
    -3.5462  -2.7202  -0.7676  -0.4250  -0.2754   1.0509   2.6015   2.6437
     2.7692   2.8963   3.3282   3.9038   4.8568   4.9545   5.1583   5.7424
     6.4993   6.6609   6.9039   7.2590   7.3173   7.6290

     occupation numbers 
     1.0000   1.0000   1.0000   1.0000   1.0000   1.0000   1.0000   1.0000
     1.0000   1.0000   0.0000   0.0000   0.0000   0.0000   0.0000   0.0000
     0.0000   0.0000   0.0000   0.0000   0.0000   0.0000   0.0000   0.0000
     0.0000   0.0000   0.0000   0.0000   0.0000   0.0000

          k = 0.0000 0.2052 0.0000 ( 59965 PWs)   bands (ev):

   -16.9306 -15.1434 -11.2477  -9.3030  -6.4031  -5.5210  -5.1612  -4.3733
    -3.7881  -2.4802  -0.7005  -0.4028  -0.2081   0.9843   2.4052   2.4934
     2.7892   3.0761   3.4579   4.0716   4.9035   4.9893   5.2370   5.5589
     6.4118   6.6704   6.8532   7.1364   7.2084   7.4623

     occupation numbers 
     1.0000   1.0000   1.0000   1.0000   1.0000   1.0000   1.0000   1.0000
     1.0000   1.0000   0.0000   0.0000   0.0000   0.0000   0.0000   0.0000
     0.0000   0.0000   0.0000   0.0000   0.0000   0.0000   0.0000   0.0000
     0.0000   0.0000   0.0000   0.0000   0.0000   0.0000

          k = 0.0000 0.2308 0.0000 ( 59901 PWs)   bands (ev):

   -16.8285 -15.2434 -11.2631  -9.5433  -6.3008  -5.4452  -4.8490  -4.4269
    -4.0226  -2.2919  -0.6303  -0.5132   0.0140   0.9359   2.1766   2.2946
     2.9233   3.2670   3.6064   4.2558   4.8793   5.1390   5.1726   5.5109
     6.1740   6.5704   6.7942   6.8446   7.3356   7.5288

     occupation numbers 
     1.0000   1.0000   1.0000   1.0000   1.0000   1.0000   1.0000   1.0000
     1.0000   1.0000   0.0000   0.0000   0.0000   0.0000   0.0000   0.0000
     0.0000   0.0000   0.0000   0.0000   0.0000   0.0000   0.0000   0.0000
     0.0000   0.0000   0.0000   0.0000   0.0000   0.0000

          k = 0.0000 0.2564 0.0000 ( 59885 PWs)   bands (ev):

   -16.7167 -15.3570 -11.2499  -9.7786  -6.1819  -5.3633  -4.5650  -4.4890
    -4.2214  -2.1854  -0.5815  -0.5590   0.2368   0.9091   1.9607   2.0970
     3.0794   3.4687   3.7725   4.4542   4.8764   5.0079   5.3057   5.4816
     6.0492   6.2523   6.4561   7.0233   7.2002   7.5340

     occupation numbers 
     1.0000   1.0000   1.0000   1.0000   1.0000   1.0000   1.0000   1.0000
     1.0000   1.0000   0.0000   0.0000   0.0000   0.0000   0.0000   0.0000
     0.0000   0.0000   0.0000   0.0000   0.0000   0.0000   0.0000   0.0000
     0.0000   0.0000   0.0000   0.0000   0.0000   0.0000

          k = 0.0000 0.2821 0.0000 ( 59894 PWs)   bands (ev):

   -16.5958 -15.4823 -11.2077 -10.0054  -6.0476  -5.2763  -4.5625  -4.5593
    -4.1336  -2.1839  -0.5893  -0.4906   0.4553   0.9061   1.7600   1.9064
     3.2512   3.6818   3.9555   4.6632   4.8364   4.8842   5.3349   5.4879
     5.9349   6.0069   6.2307   6.8826   7.2077   7.5181

     occupation numbers 
     1.0000   1.0000   1.0000   1.0000   1.0000   1.0000   1.0000   1.0000
     1.0000   1.0000   0.0000   0.0000   0.0000   0.0000   0.0000   0.0000
     0.0000   0.0000   0.0000   0.0000   0.0000   0.0000   0.0000   0.0000
     0.0000   0.0000   0.0000   0.0000   0.0000   0.0000

          k = 0.0000 0.3077 0.0000 ( 59886 PWs)   bands (ev):

   -16.4670 -15.6166 -11.1372 -10.2206  -5.8989  -5.1854  -4.7627  -4.6369
    -3.8403  -2.2846  -0.5441  -0.4308   0.6645   0.9283   1.5764   1.7240
     3.4371   3.9068   4.1546   4.6641   4.8758   4.8888   5.1663   5.6070
     5.7055   5.7491   6.3300   6.5634   7.2536   7.3986

     occupation numbers 
     1.0000   1.0000   1.0000   1.0000   1.0000   1.0000   1.0000   1.0000
     1.0000   1.0000   0.0000   0.0000   0.0000   0.0000   0.0000   0.0000
     0.0000   0.0000   0.0000   0.0000   0.0000   0.0000   0.0000   0.0000
     0.0000   0.0000   0.0000   0.0000   0.0000   0.0000

          k = 0.0000 0.3334 0.0000 ( 59884 PWs)   bands (ev):

   -16.3316 -15.7573 -11.0399 -10.4217  -5.7368  -5.0918  -4.9737  -4.7209
    -3.5353  -2.4627  -0.4754  -0.3865   0.8605   0.9760   1.4120   1.5496
     3.6356   4.1430   4.3684   4.4814   4.8754   4.9627   5.1707   5.3302
     5.4639   5.9022   6.2579   6.5040   6.9857   7.4714

     occupation numbers 
     1.0000   1.0000   1.0000   1.0000   1.0000   1.0000   1.0000   1.0000
     1.0000   1.0000   0.0000   0.0000   0.0000   0.0000   0.0000   0.0000
     0.0000   0.0000   0.0000   0.0000   0.0000   0.0000   0.0000   0.0000
     0.0000   0.0000   0.0000   0.0000   0.0000   0.0000

          k = 0.0000 0.3590 0.0000 ( 59876 PWs)   bands (ev):

   -16.1910 -15.9016 -10.9176 -10.6064  -5.5622  -5.1793  -4.9969  -4.8099
    -3.2374  -2.6918  -0.4125  -0.3654   1.0428   1.0491   1.2683   1.3812
     3.8447   4.2747   4.3908   4.5896   4.8173   4.9038   5.0958   5.1776
     5.4183   5.9366   6.1557   6.5784   6.8493   7.2313

     occupation numbers 
     1.0000   1.0000   1.0000   1.0000   1.0000   1.0000   1.0000   1.0000
     1.0000   1.0000   0.0000   0.0000   0.0000   0.0000   0.0000   0.0000
     0.0000   0.0000   0.0000   0.0000   0.0000   0.0000   0.0000   0.0000
     0.0000   0.0000   0.0000   0.0000   0.0000   0.0000

          k = 0.0000 0.3847 0.0000 ( 59882 PWs)   bands (ev):

   -16.0470 -16.0470 -10.7724 -10.7724  -5.3760  -5.3760  -4.9025  -4.9025
    -2.9538  -2.9538  -0.3736  -0.3736   1.1468   1.1468   1.2144   1.2144
     4.0604   4.0605   4.6247   4.6248   4.8145   4.8147   5.0229   5.0230
     5.6700   5.6700   6.3812   6.3813   7.0097   7.0098

     occupation numbers 
     1.0000   1.0000   1.0000   1.0000   1.0000   1.0000   1.0000   1.0000
     1.0000   1.0000   0.0000   0.0000   0.0000   0.0000   0.0000   0.0000
     0.0000   0.0000   0.0000   0.0000   0.0000   0.0000   0.0000   0.0000
     0.0000   0.0000   0.0000   0.0000   0.0000   0.0000

     the Fermi energy is    -1.9068 ev

!    total energy              =     -86.80172910 Ry
     Harris-Foulkes estimate   =     -86.80172910 Ry
     estimated scf accuracy    <          9.9E-11 Ry

     The total energy is the sum of the following terms:

     one-electron contribution =    -437.56048237 Ry
     hartree contribution      =     222.16398745 Ry
     xc contribution           =     -48.78616331 Ry
     ewald contribution        =     177.38092913 Ry
     smearing contrib. (-TS)   =      -0.00000000 Ry

     convergence has been achieved in   9 iterations

     Forces acting on atoms (cartesian axes, Ry/au):

     atom    1 type  1   force =     0.00000000   -0.00193982    0.03527325
     atom    2 type  1   force =     0.00000000    0.00194167   -0.03527325
     atom    3 type  1   force =     0.00000000   -0.00194167   -0.03527325
     atom    4 type  1   force =     0.00000000    0.00193982    0.03527325
     The non-local contrib.  to forces
     atom    1 type  1   force =     0.00000000   -0.25367071    0.22106938
     atom    2 type  1   force =     0.00000000    0.25367401   -0.22107691
     atom    3 type  1   force =     0.00000000   -0.25367401   -0.22107691
     atom    4 type  1   force =     0.00000000    0.25367071    0.22106938
     The ionic contribution  to forces
     atom    1 type  1   force =    -0.00000000    1.39635482   -9.83417623
     atom    2 type  1   force =    -0.00000000   -1.39635602    9.83417623
     atom    3 type  1   force =     0.00000000    1.39635608    9.83417596
     atom    4 type  1   force =     0.00000000   -1.39635488   -9.83417596
     The local contribution  to forces
     atom    1 type  1   force =    -0.00000000   -1.16521939    9.66673722
     atom    2 type  1   force =    -0.00000000    1.16521495   -9.66672702
     atom    3 type  1   force =     0.00000000   -1.16521420   -9.66672687
     atom    4 type  1   force =     0.00000000    1.16521939    9.66673722
     The core correction contribution to forces
     atom    1 type  1   force =     0.00000000    0.02059132   -0.01835539
     atom    2 type  1   force =     0.00000000   -0.02058961    0.01835987
     atom    3 type  1   force =    -0.00000000    0.02058940    0.01835985
     atom    4 type  1   force =    -0.00000000   -0.02059132   -0.01835539
     The Hubbard contrib.    to forces
     atom    1 type  1   force =     0.00000000    0.00000000    0.00000000
     atom    2 type  1   force =     0.00000000    0.00000000    0.00000000
     atom    3 type  1   force =     0.00000000    0.00000000    0.00000000
     atom    4 type  1   force =     0.00000000    0.00000000    0.00000000
     The SCF correction term to forces
     atom    1 type  1   force =     0.00000000    0.00000411   -0.00000053
     atom    2 type  1   force =     0.00000000   -0.00000136   -0.00000402
     atom    3 type  1   force =    -0.00000000    0.00000136   -0.00000402
     atom    4 type  1   force =    -0.00000000   -0.00000411   -0.00000053

     Total force =     0.070653     Total SCF correction =     0.000008

     Writing output data file p.save
 
     init_run     :      3.76s CPU      2.15s WALL (       1 calls)
     electrons    :    109.65s CPU     58.13s WALL (       1 calls)
     forces       :      0.69s CPU      0.36s WALL (       1 calls)

     Called by init_run:
     wfcinit      :      2.87s CPU      1.53s WALL (       1 calls)
     wfcinit:atom :      0.02s CPU      0.02s WALL (      36 calls)
     wfcinit:wfcr :      2.66s CPU      1.41s WALL (      36 calls)
     potinit      :      0.19s CPU      0.10s WALL (       1 calls)

     Called by electrons:
     c_bands      :     96.69s CPU     51.23s WALL (      10 calls)
     sum_band     :     12.57s CPU      6.59s WALL (      10 calls)
     v_of_rho     :      0.06s CPU      0.04s WALL (      10 calls)
     v_h          :      0.04s CPU      0.02s WALL (      10 calls)
     v_xc         :      0.02s CPU      0.02s WALL (      11 calls)
     mix_rho      :      0.11s CPU      0.07s WALL (      10 calls)

     Called by c_bands:
     init_us_2    :      0.72s CPU      0.41s WALL (     792 calls)
     cegterg      :     94.85s CPU     49.39s WALL (     360 calls)

     Called by sum_band:

     Called by *egterg:
     h_psi        :     60.44s CPU     31.50s WALL (    1521 calls)
     g_psi        :      0.63s CPU      0.28s WALL (    1125 calls)
     cdiaghg      :     17.90s CPU      9.42s WALL (    1449 calls)
     cegterg:over :      5.30s CPU      2.77s WALL (    1125 calls)
     cegterg:upda :      6.06s CPU      3.16s WALL (    1125 calls)
     cegterg:last :      2.16s CPU      1.15s WALL (     396 calls)
     cdiaghg:chol :      0.66s CPU      0.34s WALL (    1449 calls)
     cdiaghg:inve :      0.15s CPU      0.09s WALL (    1449 calls)
     cdiaghg:para :      1.08s CPU      0.52s WALL (    2898 calls)

     Called by h_psi:
     h_psi:pot    :     59.43s CPU     30.99s WALL (    1521 calls)
     h_psi:calbec :      1.55s CPU      0.82s WALL (    1521 calls)
     vloc_psi     :     56.66s CPU     29.53s WALL (    1521 calls)
     add_vuspsi   :      1.17s CPU      0.62s WALL (    1521 calls)

     General routines
     calbec       :      1.68s CPU      0.87s WALL (    1665 calls)
     fft          :      0.16s CPU      0.11s WALL (      45 calls)
     fftw         :     61.32s CPU     31.84s WALL (   67170 calls)
 
     Parallel routines
     fft_scatt_xy :     15.40s CPU      3.76s WALL (   67215 calls)
     fft_scatt_yz :     24.45s CPU     11.79s WALL (   67215 calls)
 
     PWSCF        :  1m59.50s CPU     1m 6.21s WALL

 
   This run was terminated on:  21:12:20  27Jul2018            

=------------------------------------------------------------------------------=
   JOB DONE.
=------------------------------------------------------------------------------=
