
     Program PWSCF v.6.2 starts on 27Jul2018 at 21: 7: 5 

     This program is part of the open-source Quantum ESPRESSO suite
     for quantum simulation of materials; please cite
         "P. Giannozzi et al., J. Phys.:Condens. Matter 21 395502 (2009);
         "P. Giannozzi et al., J. Phys.:Condens. Matter 29 465901 (2017);
          URL http://www.quantum-espresso.org", 
     in publications or presentations arising from this work. More details at
     http://www.quantum-espresso.org/quote

     Parallel version (MPI & OpenMP), running on      64 processor cores
     Number of MPI processes:                32
     Threads/MPI process:                     2

     MPI processes distributed on     1 nodes
     R & G space division:  proc/nbgrp/npool/nimage =      32
     Waiting for input...
     Reading input from standard input

     Current dimensions of program PWSCF are:
     Max number of different atomic species (ntypx) = 20
     Max number of k-points (npk) =  40000
     Max angular momentum in pseudopotentials (lmaxx) =  3

     Subspace diagonalization in iterative solution of the eigenvalue problem:
     one sub-group per band group will be used
     scalapack distributed-memory algorithm (size of sub-group:  4*  4 procs)

 
     Parallelization info
     --------------------
     sticks:   dense  smooth     PW     G-vecs:    dense   smooth      PW
     Min          71      71     19                14985    14985    2112
     Max          72      72     20                14995    14995    2124
     Sum        2283    2283    621               479677   479677   67809
 


     bravais-lattice index     =            0
     lattice parameter (alat)  =       6.2737  a.u.
     unit-cell volume          =    2142.8622 (a.u.)^3
     number of atoms/cell      =            4
     number of atomic types    =            1
     number of electrons       =        20.00
     number of Kohn-Sham states=           30
     kinetic-energy cutoff     =     140.0000  Ry
     charge density cutoff     =     560.0000  Ry
     convergence threshold     =      1.0E-09
     mixing beta               =       0.7000
     number of iterations used =            8  plain     mixing
     Exchange-correlation      = PZ ( 1  1  0  0 0 0)

     celldm(1)=   6.273702  celldm(2)=   0.000000  celldm(3)=   0.000000
     celldm(4)=   0.000000  celldm(5)=   0.000000  celldm(6)=   0.000000

     crystal axes: (cart. coord. in units of alat)
               a(1) = (   1.000000   0.000000   0.000000 )  
               a(2) = (   0.000000   1.299858   0.000000 )  
               a(3) = (   0.000000   0.000000   6.676157 )  

     reciprocal axes: (cart. coord. in units 2 pi/alat)
               b(1) = (  1.000000  0.000000  0.000000 )  
               b(2) = (  0.000000  0.769315  0.000000 )  
               b(3) = (  0.000000  0.000000  0.149787 )  


     PseudoPot. # 1 for P  read from file:
     ./P.UPF
     MD5 check sum: b88c35a6f4b891eaa010a3085e4716c8
     Pseudo is Norm-conserving + core correction, Zval =  5.0
     Generated using "atomic" code by A. Dal Corso v.6.0 svn rev. 13079
     Using radial grid of 1147 points,  2 beta functions with: 
                l(1) =   0
                l(2) =   1

     atomic species   valence    mass     pseudopotential
       P               5.00    30.97400     P ( 1.00)

      4 Sym. Ops. (no inversion) found ( 2 have fractional translation)


                                    s                        frac. trans.

      isym =  1     identity                                     

 cryst.   s( 1) = (     1          0          0      )
                  (     0          1          0      )
                  (     0          0          1      )

 cart.    s( 1) = (  1.0000000  0.0000000  0.0000000 )
                  (  0.0000000  1.0000000  0.0000000 )
                  (  0.0000000  0.0000000  1.0000000 )


      isym =  2     180 deg rotation - cart. axis [0,0,1]        

 cryst.   s( 2) = (    -1          0          0      )    f =(  0.5000000 )
                  (     0         -1          0      )       (  0.4999999 )
                  (     0          0          1      )       (  0.0000000 )

 cart.    s( 2) = ( -1.0000000  0.0000000  0.0000000 )    f =(  0.5000000 )
                  (  0.0000000 -1.0000000  0.0000000 )       (  0.6499291 )
                  (  0.0000000  0.0000000  1.0000000 )       (  0.0000000 )


      isym =  3     inv. 180 deg rotation - cart. axis [0,1,0]   

 cryst.   s( 3) = (     1          0          0      )    f =(  0.5000000 )
                  (     0         -1          0      )       (  0.4999999 )
                  (     0          0          1      )       (  0.0000000 )

 cart.    s( 3) = (  1.0000000  0.0000000  0.0000000 )    f =(  0.5000000 )
                  (  0.0000000 -1.0000000  0.0000000 )       (  0.6499291 )
                  (  0.0000000  0.0000000  1.0000000 )       (  0.0000000 )


      isym =  4     inv. 180 deg rotation - cart. axis [1,0,0]   

 cryst.   s( 4) = (    -1          0          0      )
                  (     0          1          0      )
                  (     0          0          1      )

 cart.    s( 4) = ( -1.0000000  0.0000000  0.0000000 )
                  (  0.0000000  1.0000000  0.0000000 )
                  (  0.0000000  0.0000000  1.0000000 )


   Cartesian axes

     site n.     atom                  positions (alat units)
         1          P    tau(   1) = (   0.5000000   0.5432110   1.2355230  )
         2          P    tau(   2) = (   0.5000000   0.7566476   1.8874023  )
         3          P    tau(   3) = (   0.0000000   1.1931401   1.8874023  )
         4          P    tau(   4) = (   0.0000000   0.1067183   1.2355230  )

   Crystallographic axes

     site n.     atom                  positions (cryst. coord.)
         1          P    tau(   1) = (  0.5000000  0.4179001  0.1850650  )
         2          P    tau(   2) = (  0.5000000  0.5821000  0.2827079  )
         3          P    tau(   3) = (  0.0000000  0.9179000  0.2827079  )
         4          P    tau(   4) = (  0.0000000  0.0821000  0.1850650  )

     number of k points=    36  gaussian smearing, width (Ry)=  0.0010
                       cart. coord. in units 2pi/alat
        k(    1) = (   0.5000000   0.0000000   0.0000000), wk =   0.0555556
        k(    2) = (   0.4750000   0.0000000   0.0000000), wk =   0.0555556
        k(    3) = (   0.4500000   0.0000000   0.0000000), wk =   0.0555556
        k(    4) = (   0.4250000   0.0000000   0.0000000), wk =   0.0555556
        k(    5) = (   0.4000000   0.0000000   0.0000000), wk =   0.0555556
        k(    6) = (   0.3750000   0.0000000   0.0000000), wk =   0.0555556
        k(    7) = (   0.3500000   0.0000000   0.0000000), wk =   0.0555556
        k(    8) = (   0.3250000   0.0000000   0.0000000), wk =   0.0555556
        k(    9) = (   0.3000000   0.0000000   0.0000000), wk =   0.0555556
        k(   10) = (   0.2750000   0.0000000   0.0000000), wk =   0.0555556
        k(   11) = (   0.2500000   0.0000000   0.0000000), wk =   0.0555556
        k(   12) = (   0.2250000   0.0000000   0.0000000), wk =   0.0555556
        k(   13) = (   0.2000000   0.0000000   0.0000000), wk =   0.0555556
        k(   14) = (   0.1750000   0.0000000   0.0000000), wk =   0.0555556
        k(   15) = (   0.1500000   0.0000000   0.0000000), wk =   0.0555556
        k(   16) = (   0.1250000   0.0000000   0.0000000), wk =   0.0555556
        k(   17) = (   0.1000000   0.0000000   0.0000000), wk =   0.0555556
        k(   18) = (   0.0750000   0.0000000   0.0000000), wk =   0.0555556
        k(   19) = (   0.0500000   0.0000000   0.0000000), wk =   0.0555556
        k(   20) = (   0.0250000   0.0000000   0.0000000), wk =   0.0555556
        k(   21) = (   0.0000000   0.0000000   0.0000000), wk =   0.0555556
        k(   22) = (   0.0000000   0.0256436   0.0000000), wk =   0.0555556
        k(   23) = (   0.0000000   0.0512879   0.0000000), wk =   0.0555556
        k(   24) = (   0.0000000   0.0769315   0.0000000), wk =   0.0555556
        k(   25) = (   0.0000000   0.1025750   0.0000000), wk =   0.0555556
        k(   26) = (   0.0000000   0.1282193   0.0000000), wk =   0.0555556
        k(   27) = (   0.0000000   0.1538629   0.0000000), wk =   0.0555556
        k(   28) = (   0.0000000   0.1795065   0.0000000), wk =   0.0555556
        k(   29) = (   0.0000000   0.2051508   0.0000000), wk =   0.0555556
        k(   30) = (   0.0000000   0.2307944   0.0000000), wk =   0.0555556
        k(   31) = (   0.0000000   0.2564379   0.0000000), wk =   0.0555556
        k(   32) = (   0.0000000   0.2820823   0.0000000), wk =   0.0555556
        k(   33) = (   0.0000000   0.3077258   0.0000000), wk =   0.0555556
        k(   34) = (   0.0000000   0.3333694   0.0000000), wk =   0.0555556
        k(   35) = (   0.0000000   0.3590137   0.0000000), wk =   0.0555556
        k(   36) = (   0.0000000   0.3846573   0.0000000), wk =   0.0555556

                       cryst. coord.
        k(    1) = (   0.5000000   0.0000000   0.0000000), wk =   0.0555556
        k(    2) = (   0.4750000   0.0000000   0.0000000), wk =   0.0555556
        k(    3) = (   0.4500000   0.0000000   0.0000000), wk =   0.0555556
        k(    4) = (   0.4250000   0.0000000   0.0000000), wk =   0.0555556
        k(    5) = (   0.4000000   0.0000000   0.0000000), wk =   0.0555556
        k(    6) = (   0.3750000   0.0000000   0.0000000), wk =   0.0555556
        k(    7) = (   0.3500000   0.0000000   0.0000000), wk =   0.0555556
        k(    8) = (   0.3250000   0.0000000   0.0000000), wk =   0.0555556
        k(    9) = (   0.3000000   0.0000000   0.0000000), wk =   0.0555556
        k(   10) = (   0.2750000   0.0000000   0.0000000), wk =   0.0555556
        k(   11) = (   0.2500000   0.0000000   0.0000000), wk =   0.0555556
        k(   12) = (   0.2250000   0.0000000   0.0000000), wk =   0.0555556
        k(   13) = (   0.2000000   0.0000000   0.0000000), wk =   0.0555556
        k(   14) = (   0.1750000   0.0000000   0.0000000), wk =   0.0555556
        k(   15) = (   0.1500000   0.0000000   0.0000000), wk =   0.0555556
        k(   16) = (   0.1250000   0.0000000   0.0000000), wk =   0.0555556
        k(   17) = (   0.1000000   0.0000000   0.0000000), wk =   0.0555556
        k(   18) = (   0.0750000   0.0000000   0.0000000), wk =   0.0555556
        k(   19) = (   0.0500000   0.0000000   0.0000000), wk =   0.0555556
        k(   20) = (   0.0250000   0.0000000   0.0000000), wk =   0.0555556
        k(   21) = (   0.0000000   0.0000000   0.0000000), wk =   0.0555556
        k(   22) = (   0.0000000   0.0333330   0.0000000), wk =   0.0555556
        k(   23) = (   0.0000000   0.0666670   0.0000000), wk =   0.0555556
        k(   24) = (   0.0000000   0.1000000   0.0000000), wk =   0.0555556
        k(   25) = (   0.0000000   0.1333330   0.0000000), wk =   0.0555556
        k(   26) = (   0.0000000   0.1666670   0.0000000), wk =   0.0555556
        k(   27) = (   0.0000000   0.2000000   0.0000000), wk =   0.0555556
        k(   28) = (   0.0000000   0.2333330   0.0000000), wk =   0.0555556
        k(   29) = (   0.0000000   0.2666670   0.0000000), wk =   0.0555556
        k(   30) = (   0.0000000   0.3000000   0.0000000), wk =   0.0555556
        k(   31) = (   0.0000000   0.3333330   0.0000000), wk =   0.0555556
        k(   32) = (   0.0000000   0.3666670   0.0000000), wk =   0.0555556
        k(   33) = (   0.0000000   0.4000000   0.0000000), wk =   0.0555556
        k(   34) = (   0.0000000   0.4333330   0.0000000), wk =   0.0555556
        k(   35) = (   0.0000000   0.4666670   0.0000000), wk =   0.0555556
        k(   36) = (   0.0000000   0.5000000   0.0000000), wk =   0.0555556

     Dense  grid:   479677 G-vectors     FFT dimensions: (  48,  64, 320)

     Dynamical RAM for                 wfc:       0.86 MB

     Dynamical RAM for     wfc (w. buffer):      31.72 MB

     Dynamical RAM for           str. fact:       0.23 MB

     Dynamical RAM for           local pot:       0.00 MB

     Dynamical RAM for          nlocal pot:       0.46 MB

     Dynamical RAM for                qrad:       0.16 MB

     Dynamical RAM for          rho,v,vnew:       1.39 MB

     Dynamical RAM for               rhoin:       0.46 MB

     Dynamical RAM for            rho*nmix:       3.66 MB

     Dynamical RAM for           G-vectors:       0.97 MB

     Dynamical RAM for          h,s,v(r/c):       0.04 MB

     Dynamical RAM for          <psi|beta>:       0.01 MB

     Dynamical RAM for                 psi:       3.43 MB

     Dynamical RAM for                hpsi:       3.43 MB

     Dynamical RAM for      wfcinit/wfcrot:       1.74 MB

     Estimated static dynamical RAM per process >      40.69 MB

     Estimated max dynamical RAM per process >      47.59 MB

     Estimated total dynamical RAM >       1.49 GB

     Check: negative/imaginary core charge=   -0.000001    0.000000

     Initial potential from superposition of free atoms

     starting charge   19.99943, renormalised to   20.00000

     negative rho (up, down):  1.936E-06 0.000E+00
     Starting wfc are   16 randomized atomic wfcs +   14 random wfc

     total cpu time spent up to now is        2.4 secs

     Self-consistent Calculation

     iteration #  1     ecut=   140.00 Ry     beta= 0.70
     Davidson diagonalization with overlap
     ethr =  1.00E-02,  avg # of iterations =  8.2

     Threshold (ethr) on eigenvalues was too large:
     Diagonalizing with lowered threshold

     Davidson diagonalization with overlap
     ethr =  5.11E-04,  avg # of iterations =  1.3

     total cpu time spent up to now is       19.2 secs

     total energy              =     -61.95492025 Ry
     Harris-Foulkes estimate   =     -61.99569297 Ry
     estimated scf accuracy    <       0.10117316 Ry

     iteration #  2     ecut=   140.00 Ry     beta= 0.70
     Davidson diagonalization with overlap
     ethr =  5.06E-04,  avg # of iterations =  3.0

     total cpu time spent up to now is       24.2 secs

     total energy              =     -61.95710948 Ry
     Harris-Foulkes estimate   =     -61.96931483 Ry
     estimated scf accuracy    <       0.01884798 Ry

     iteration #  3     ecut=   140.00 Ry     beta= 0.70
     Davidson diagonalization with overlap
     ethr =  9.42E-05,  avg # of iterations =  3.4

     total cpu time spent up to now is       30.1 secs

     total energy              =     -61.96110721 Ry
     Harris-Foulkes estimate   =     -61.96834692 Ry
     estimated scf accuracy    <       0.01551999 Ry

     iteration #  4     ecut=   140.00 Ry     beta= 0.70
     Davidson diagonalization with overlap
     ethr =  7.76E-05,  avg # of iterations =  2.2

     total cpu time spent up to now is       34.8 secs

     total energy              =     -61.96421841 Ry
     Harris-Foulkes estimate   =     -61.96426382 Ry
     estimated scf accuracy    <       0.00009977 Ry

     iteration #  5     ecut=   140.00 Ry     beta= 0.70
     Davidson diagonalization with overlap
     ethr =  4.99E-07,  avg # of iterations =  5.5

     total cpu time spent up to now is       42.4 secs

     total energy              =     -61.96425560 Ry
     Harris-Foulkes estimate   =     -61.96425752 Ry
     estimated scf accuracy    <       0.00000394 Ry

     iteration #  6     ecut=   140.00 Ry     beta= 0.70
     Davidson diagonalization with overlap
     ethr =  1.97E-08,  avg # of iterations =  2.0

     total cpu time spent up to now is       47.0 secs

     total energy              =     -61.96425551 Ry
     Harris-Foulkes estimate   =     -61.96425673 Ry
     estimated scf accuracy    <       0.00000264 Ry

     iteration #  7     ecut=   140.00 Ry     beta= 0.70
     Davidson diagonalization with overlap
     ethr =  1.32E-08,  avg # of iterations =  1.0

     total cpu time spent up to now is       51.1 secs

     total energy              =     -61.96425595 Ry
     Harris-Foulkes estimate   =     -61.96425694 Ry
     estimated scf accuracy    <       0.00000430 Ry

     iteration #  8     ecut=   140.00 Ry     beta= 0.70
     Davidson diagonalization with overlap
     ethr =  1.32E-08,  avg # of iterations =  1.0

     total cpu time spent up to now is       55.2 secs

     total energy              =     -61.96425642 Ry
     Harris-Foulkes estimate   =     -61.96425642 Ry
     estimated scf accuracy    <          3.3E-09 Ry

     iteration #  9     ecut=   140.00 Ry     beta= 0.70
     Davidson diagonalization with overlap
     ethr =  1.64E-11,  avg # of iterations =  2.8

     total cpu time spent up to now is       60.6 secs

     End of self-consistent calculation

          k = 0.5000 0.0000 0.0000 ( 59984 PWs)   bands (ev):

   -14.4614 -14.4614 -11.8095 -11.8095  -6.7758  -6.7758  -4.8053  -4.8053
    -4.2520  -4.2520  -0.8747  -0.8747  -0.3132  -0.3132   1.0212   1.0212
     4.5098   4.5098   5.4661   5.4661   5.8800   5.8800   6.3486   6.3486
     6.6264   6.6264   7.7400   7.7400   7.8098   7.8098

     occupation numbers 
     1.0000   1.0000   1.0000   1.0000   1.0000   1.0000   1.0000   1.0000
     1.0000   1.0000   0.0000   0.0000   0.0000   0.0000   0.0000   0.0000
     0.0000   0.0000   0.0000   0.0000   0.0000   0.0000   0.0000   0.0000
     0.0000   0.0000   0.0000   0.0000   0.0000   0.0000

          k = 0.4750 0.0000 0.0000 ( 59982 PWs)   bands (ev):

   -14.7265 -14.1876 -12.0964 -11.5100  -6.8441  -6.7356  -4.9021  -4.7355
    -4.3098  -4.1531  -0.8937  -0.8051  -0.5307  -0.0766   0.7827   1.2692
     4.4547   4.5157   5.1476   5.6342   5.7999   6.1315   6.1501   6.3037
     6.6319   6.9630   7.4628   7.5556   8.0166   8.0413

     occupation numbers 
     1.0000   1.0000   1.0000   1.0000   1.0000   1.0000   1.0000   1.0000
     1.0000   1.0000   0.0000   0.0000   0.0000   0.0000   0.0000   0.0000
     0.0000   0.0000   0.0000   0.0000   0.0000   0.0000   0.0000   0.0000
     0.0000   0.0000   0.0000   0.0000   0.0000   0.0000

          k = 0.4500 0.0000 0.0000 ( 59950 PWs)   bands (ev):

   -14.9816 -13.9062 -12.3702 -11.1982  -6.9318  -6.7294  -5.0208  -4.6959
    -4.3232  -4.0203  -0.8574  -0.7253  -0.6939   0.1757   0.5586   1.5237
     4.3811   4.4478   4.8447   5.3944   5.9960   6.0160   6.1483   6.4433
     6.9491   7.2076   7.2943   7.3105   8.2268   8.2289

     occupation numbers 
     1.0000   1.0000   1.0000   1.0000   1.0000   1.0000   1.0000   1.0000
     1.0000   1.0000   0.0000   0.0000   0.0000   0.0000   0.0000   0.0000
     0.0000   0.0000   0.0000   0.0000   0.0000   0.0000   0.0000   0.0000
     0.0000   0.0000   0.0000   0.0000   0.0000   0.0000

          k = 0.4250 0.0000 0.0000 ( 59950 PWs)   bands (ev):

   -15.2260 -13.6189 -12.6305 -10.8750  -7.0293  -6.7584  -5.1555  -4.6866
    -4.2948  -3.8619  -0.8925  -0.7644  -0.5561   0.3586   0.4405   1.7814
     4.3100   4.3112   4.5578   5.1473   5.7041   5.9920   6.5101   6.7351
     6.9961   7.0350   7.2695   7.6610   8.1602   8.3593

     occupation numbers 
     1.0000   1.0000   1.0000   1.0000   1.0000   1.0000   1.0000   1.0000
     1.0000   1.0000   0.0000   0.0000   0.0000   0.0000   0.0000   0.0000
     0.0000   0.0000   0.0000   0.0000   0.0000   0.0000   0.0000   0.0000
     0.0000   0.0000   0.0000   0.0000   0.0000   0.0000

          k = 0.4000 0.0000 0.0000 ( 59964 PWs)   bands (ev):

   -15.4589 -13.3278 -12.8771 -10.5409  -7.1281  -6.8183  -5.3003  -4.7047
    -4.2337  -3.6859  -1.0264  -0.6172  -0.4264   0.2121   0.7150   2.0390
     4.1285   4.2599   4.2870   4.8982   5.4283   5.9881   6.7830   6.8643
     6.8822   6.8971   7.5009   7.9863   7.9906   8.4551

     occupation numbers 
     1.0000   1.0000   1.0000   1.0000   1.0000   1.0000   1.0000   1.0000
     1.0000   1.0000   0.0000   0.0000   0.0000   0.0000   0.0000   0.0000
     0.0000   0.0000   0.0000   0.0000   0.0000   0.0000   0.0000   0.0000
     0.0000   0.0000   0.0000   0.0000   0.0000   0.0000

          k = 0.3750 0.0000 0.0000 ( 59944 PWs)   bands (ev):

   -15.6796 -13.1096 -13.0354 -10.1971  -7.2204  -6.9022  -5.4502  -4.7448
    -4.1532  -3.4995  -1.1205  -0.4206  -0.3890   0.1982   0.9961   2.2922
     3.9282   4.0325   4.2373   4.6548   5.1689   5.9263   6.5415   6.5903
     6.8479   7.2534   7.7191   8.1973   8.2255   8.3428

     occupation numbers 
     1.0000   1.0000   1.0000   1.0000   1.0000   1.0000   1.0000   1.0000
     1.0000   1.0000   0.0000   0.0000   0.0000   0.0000   0.0000   0.0000
     0.0000   0.0000   0.0000   0.0000   0.0000   0.0000   0.0000   0.0000
     0.0000   0.0000   0.0000   0.0000   0.0000   0.0000

          k = 0.3500 0.0000 0.0000 ( 59980 PWs)   bands (ev):

   -15.8878 -13.3280 -12.7448  -9.8447  -7.2996  -7.0021  -5.6011  -4.8003
    -4.0684  -3.3091  -1.1674  -0.4814  -0.1807   0.3500   1.2806   2.5358
     3.7242   3.7944   4.2512   4.4221   4.9259   5.7942   6.0097   6.3122
     6.9187   7.5323   8.0685   8.1256   8.1456   8.2672

     occupation numbers 
     1.0000   1.0000   1.0000   1.0000   1.0000   1.0000   1.0000   1.0000
     1.0000   1.0000   0.0000   0.0000   0.0000   0.0000   0.0000   0.0000
     0.0000   0.0000   0.0000   0.0000   0.0000   0.0000   0.0000   0.0000
     0.0000   0.0000   0.0000   0.0000   0.0000   0.0000

          k = 0.3250 0.0000 0.0000 ( 59986 PWs)   bands (ev):

   -16.0829 -13.5319 -12.4597  -9.4855  -7.3594  -7.1111  -5.7497  -4.8645
    -3.9933  -3.1203  -1.1602  -0.6265   0.0959   0.5867   1.5653   2.7624
     3.5247   3.5728   4.2026   4.3070   4.6996   5.3705   5.6272   6.0964
     6.9940   7.2268   7.9537   8.2022   8.2102   8.3114

     occupation numbers 
     1.0000   1.0000   1.0000   1.0000   1.0000   1.0000   1.0000   1.0000
     1.0000   1.0000   0.0000   0.0000   0.0000   0.0000   0.0000   0.0000
     0.0000   0.0000   0.0000   0.0000   0.0000   0.0000   0.0000   0.0000
     0.0000   0.0000   0.0000   0.0000   0.0000   0.0000

          k = 0.3000 0.0000 0.0000 ( 59970 PWs)   bands (ev):

   -16.2647 -13.7213 -12.1847  -9.1218  -7.3939  -7.2237  -5.8934  -4.9309
    -3.9378  -2.9382  -1.0949  -0.7809   0.4026   0.8610   1.8466   2.9617
     3.3343   3.3680   3.9976   4.3986   4.4900   4.7339   5.4516   5.8948
     6.6567   7.0030   7.7700   8.1963   8.2903   8.5231

     occupation numbers 
     1.0000   1.0000   1.0000   1.0000   1.0000   1.0000   1.0000   1.0000
     1.0000   1.0000   0.0000   0.0000   0.0000   0.0000   0.0000   0.0000
     0.0000   0.0000   0.0000   0.0000   0.0000   0.0000   0.0000   0.0000
     0.0000   0.0000   0.0000   0.0000   0.0000   0.0000

          k = 0.2750 0.0000 0.0000 ( 59956 PWs)   bands (ev):

   -16.4327 -13.8960 -11.9248  -8.7565  -7.3976  -7.3358  -6.0302  -4.9931
    -3.9069  -2.7669  -0.9715  -0.9309   0.7328   1.1560   2.1177   3.1186
     3.1556   3.1804   3.8078   4.0634   4.2973   4.5875   5.2795   5.7080
     6.0961   6.9295   7.5965   8.0941   8.3347   8.6057

     occupation numbers 
     1.0000   1.0000   1.0000   1.0000   1.0000   1.0000   1.0000   1.0000
     1.0000   1.0000   0.0000   0.0000   0.0000   0.0000   0.0000   0.0000
     0.0000   0.0000   0.0000   0.0000   0.0000   0.0000   0.0000   0.0000
     0.0000   0.0000   0.0000   0.0000   0.0000   0.0000

          k = 0.2500 0.0000 0.0000 ( 59948 PWs)   bands (ev):

   -16.5869 -14.0559 -11.6854  -8.3942  -7.4442  -7.3654  -6.1585  -5.0448
    -3.8999  -2.6102  -1.0720  -0.7950   1.0779   1.4632   2.3528   2.9902
     3.0105   3.2096   3.4822   3.6339   4.1215   4.7854   5.1166   5.5362
     5.5968   6.7996   7.4345   7.9209   8.4061   8.8574

     occupation numbers 
     1.0000   1.0000   1.0000   1.0000   1.0000   1.0000   1.0000   1.0000
     1.0000   1.0000   0.0000   0.0000   0.0000   0.0000   0.0000   0.0000
     0.0000   0.0000   0.0000   0.0000   0.0000   0.0000   0.0000   0.0000
     0.0000   0.0000   0.0000   0.0000   0.0000   0.0000

          k = 0.2250 0.0000 0.0000 ( 59966 PWs)   bands (ev):

   -16.7270 -14.2008 -11.4715  -8.0409  -7.5466  -7.2934  -6.2771  -5.0792
    -3.9125  -2.4706  -1.2019  -0.5737   1.4235   1.7751   2.3885   2.8390
     2.8603   3.1160   3.2058   3.4760   3.9628   4.9655   5.0353   5.2039
     5.3797   6.6379   7.2848   7.7419   8.5126   9.1779

     occupation numbers 
     1.0000   1.0000   1.0000   1.0000   1.0000   1.0000   1.0000   1.0000
     1.0000   1.0000   0.0000   0.0000   0.0000   0.0000   0.0000   0.0000
     0.0000   0.0000   0.0000   0.0000   0.0000   0.0000   0.0000   0.0000
     0.0000   0.0000   0.0000   0.0000   0.0000   0.0000

          k = 0.2000 0.0000 0.0000 ( 59990 PWs)   bands (ev):

   -16.8527 -14.3307 -11.2868  -7.7051  -7.6413  -7.1797  -6.3851  -5.0883
    -3.9388  -2.3499  -1.3195  -0.3175   1.7346   1.9866   2.0805   2.7027
     2.7358   3.1051   3.2167   3.3343   3.8216   4.8275   4.9543   5.2385
     5.3265   6.4569   7.1478   7.5716   8.6567   9.5221

     occupation numbers 
     1.0000   1.0000   1.0000   1.0000   1.0000   1.0000   1.0000   1.0000
     1.0000   1.0000   0.0000   0.0000   0.0000   0.0000   0.0000   0.0000
     0.0000   0.0000   0.0000   0.0000   0.0000   0.0000   0.0000   0.0000
     0.0000   0.0000   0.0000   0.0000   0.0000   0.0000

          k = 0.1750 0.0000 0.0000 ( 59969 PWs)   bands (ev):

   -16.9639 -14.4455 -11.1334  -7.7270  -7.3983  -7.0259  -6.4817  -5.0628
    -3.9730  -2.2489  -1.4242  -0.0369   1.4506   1.9078   2.3371   2.5817
     2.6737   3.0207   3.2090   3.4897   3.6984   4.7033   4.8398   5.1125
     5.6505   6.2620   7.0239   7.4151   8.8345   9.7056

     occupation numbers 
     1.0000   1.0000   1.0000   1.0000   1.0000   1.0000   1.0000   1.0000
     1.0000   1.0000   0.0000   0.0000   0.0000   0.0000   0.0000   0.0000
     0.0000   0.0000   0.0000   0.0000   0.0000   0.0000   0.0000   0.0000
     0.0000   0.0000   0.0000   0.0000   0.0000   0.0000

          k = 0.1500 0.0000 0.0000 ( 59967 PWs)   bands (ev):

   -17.0606 -14.5451 -11.0107  -7.8028  -7.1334  -6.8371  -6.5664  -4.9938
    -4.0103  -2.1675  -1.5156   0.2577   0.9166   1.7969   2.3976   2.4764
     2.8137   3.1002   3.1496   3.5949   3.8079   4.5930   4.8140   5.0014
     5.9971   6.0561   6.9132   7.2754   9.0039   9.3377

     occupation numbers 
     1.0000   1.0000   1.0000   1.0000   1.0000   1.0000   1.0000   1.0000
     1.0000   1.0000   0.0000   0.0000   0.0000   0.0000   0.0000   0.0000
     0.0000   0.0000   0.0000   0.0000   0.0000   0.0000   0.0000   0.0000
     0.0000   0.0000   0.0000   0.0000   0.0000   0.0000

          k = 0.1250 0.0000 0.0000 ( 59967 PWs)   bands (ev):

   -17.1425 -14.6295 -10.9164  -7.8679  -6.9217  -6.6387  -6.6232  -4.8765
    -4.0468  -2.1055  -1.5933   0.4149   0.5551   1.4838   2.3404   2.3867
     3.0078   3.0637   3.4553   3.5178   4.1488   4.4962   4.8387   4.9049
     5.8437   6.3531   6.8157   7.1550   8.7549   9.3657

     occupation numbers 
     1.0000   1.0000   1.0000   1.0000   1.0000   1.0000   1.0000   1.0000
     1.0000   1.0000   0.0000   0.0000   0.0000   0.0000   0.0000   0.0000
     0.0000   0.0000   0.0000   0.0000   0.0000   0.0000   0.0000   0.0000
     0.0000   0.0000   0.0000   0.0000   0.0000   0.0000

          k = 0.1000 0.0000 0.0000 ( 59967 PWs)   bands (ev):

   -17.2097 -14.6986 -10.8467  -7.9218  -6.7668  -6.6983  -6.3984  -4.7175
    -4.0799  -2.0624  -1.6570  -0.0365   0.8426   1.1167   2.2768   2.3130
     2.9319   3.2637   3.5071   3.8101   4.4127   4.5022   4.8225   4.9039
     5.6330   6.6972   6.7320   7.0555   8.2831   9.3174

     occupation numbers 
     1.0000   1.0000   1.0000   1.0000   1.0000   1.0000   1.0000   1.0000
     1.0000   1.0000   0.0000   0.0000   0.0000   0.0000   0.0000   0.0000
     0.0000   0.0000   0.0000   0.0000   0.0000   0.0000   0.0000   0.0000
     0.0000   0.0000   0.0000   0.0000   0.0000   0.0000

          k = 0.0750 0.0000 0.0000 ( 59973 PWs)   bands (ev):

   -17.2620 -14.7524 -10.7976  -7.9642  -6.7449  -6.6632  -6.1819  -4.5376
    -4.1074  -2.0375  -1.7068  -0.4191   0.7681   1.1042   2.2237   2.2551
     2.8724   3.3009   3.6475   4.1328   4.3422   4.7534   4.8552   5.0311
     5.4376   6.6630   6.9778   6.9895   7.7964   8.9770

     occupation numbers 
     1.0000   1.0000   1.0000   1.0000   1.0000   1.0000   1.0000   1.0000
     1.0000   1.0000   0.0000   0.0000   0.0000   0.0000   0.0000   0.0000
     0.0000   0.0000   0.0000   0.0000   0.0000   0.0000   0.0000   0.0000
     0.0000   0.0000   0.0000   0.0000   0.0000   0.0000

          k = 0.0500 0.0000 0.0000 ( 59947 PWs)   bands (ev):

   -17.2994 -14.7908 -10.7655  -7.9946  -6.7783  -6.6000  -5.9974  -4.3686
    -4.1279  -2.0291  -1.7424  -0.7118   0.4809   1.3193   2.1848   2.2131
     2.8296   3.2786   3.8186   4.2858   4.3550   4.6981   5.1840   5.2573
     5.2761   6.6105   6.9223   7.1609   7.3237   8.7986

     occupation numbers 
     1.0000   1.0000   1.0000   1.0000   1.0000   1.0000   1.0000   1.0000
     1.0000   1.0000   0.0000   0.0000   0.0000   0.0000   0.0000   0.0000
     0.0000   0.0000   0.0000   0.0000   0.0000   0.0000   0.0000   0.0000
     0.0000   0.0000   0.0000   0.0000   0.0000   0.0000

          k = 0.0250 0.0000 0.0000 ( 59943 PWs)   bands (ev):

   -17.3219 -14.8139 -10.7473  -8.0129  -6.7984  -6.5666  -5.8713  -4.2468
    -4.1406  -2.0312  -1.7638  -0.8951   0.2899   1.4639   2.1612   2.1874
     2.8035   3.2594   3.9399   4.2475   4.4629   4.6596   5.1687   5.4406
     5.5500   6.5772   6.8890   6.9088   7.1774   8.8443

     occupation numbers 
     1.0000   1.0000   1.0000   1.0000   1.0000   1.0000   1.0000   1.0000
     1.0000   1.0000   0.0000   0.0000   0.0000   0.0000   0.0000   0.0000
     0.0000   0.0000   0.0000   0.0000   0.0000   0.0000   0.0000   0.0000
     0.0000   0.0000   0.0000   0.0000   0.0000   0.0000

          k = 0.0000 0.0000 0.0000 ( 59965 PWs)   bands (ev):

   -17.3294 -14.8216 -10.7415  -8.0191  -6.8051  -6.5563  -5.8263  -4.2021
    -4.1449  -2.0339  -1.7709  -0.9573   0.2226   1.5153   2.1533   2.1786
     2.7947   3.2526   3.9839   4.2336   4.4930   4.6451   5.1309   5.5437
     5.7194   6.5657   6.7047   6.8779   7.1510   8.9798

     occupation numbers 
     1.0000   1.0000   1.0000   1.0000   1.0000   1.0000   1.0000   1.0000
     1.0000   1.0000   0.0000   0.0000   0.0000   0.0000   0.0000   0.0000
     0.0000   0.0000   0.0000   0.0000   0.0000   0.0000   0.0000   0.0000
     0.0000   0.0000   0.0000   0.0000   0.0000   0.0000

          k = 0.0000 0.0256 0.0000 ( 59987 PWs)   bands (ev):

   -17.3230 -14.8254 -10.7593  -8.0441  -6.7699  -6.5662  -5.8213  -4.2043
    -4.0987  -2.1554  -1.6563  -0.9528   0.2126   1.5002   2.1714   2.1875
     2.8035   3.2647   3.9331   4.1808   4.4377   4.6557   5.2215   5.5837
     5.7284   6.5666   6.7409   6.8924   7.1100   9.0113

     occupation numbers 
     1.0000   1.0000   1.0000   1.0000   1.0000   1.0000   1.0000   1.0000
     1.0000   1.0000   0.0000   0.0000   0.0000   0.0000   0.0000   0.0000
     0.0000   0.0000   0.0000   0.0000   0.0000   0.0000   0.0000   0.0000
     0.0000   0.0000   0.0000   0.0000   0.0000   0.0000

          k = 0.0000 0.0513 0.0000 ( 59967 PWs)   bands (ev):

   -17.3038 -14.8373 -10.8094  -8.1190  -6.6675  -6.5887  -5.8063  -4.2109
    -3.9680  -2.3610  -1.4707  -0.9392   0.1822   1.4566   2.2144   2.2246
     2.8298   3.3011   3.7960   3.9938   4.4106   4.6875   5.3316   5.6893
     5.8099   6.5627   6.8472   6.9364   7.0040   8.6586

     occupation numbers 
     1.0000   1.0000   1.0000   1.0000   1.0000   1.0000   1.0000   1.0000
     1.0000   1.0000   0.0000   0.0000   0.0000   0.0000   0.0000   0.0000
     0.0000   0.0000   0.0000   0.0000   0.0000   0.0000   0.0000   0.0000
     0.0000   0.0000   0.0000   0.0000   0.0000   0.0000

          k = 0.0000 0.0769 0.0000 ( 59983 PWs)   bands (ev):

   -17.2719 -14.8581 -10.8837  -8.2420  -6.6084  -6.5056  -5.7815  -4.2223
    -3.7713  -2.5851  -1.2780  -0.9150   0.1309   1.3902   2.2588   2.3096
     2.8731   3.3618   3.6021   3.7419   4.4388   4.7400   5.3166   5.8332
     6.0178   6.5236   6.8853   7.0122   7.0180   8.3252

     occupation numbers 
     1.0000   1.0000   1.0000   1.0000   1.0000   1.0000   1.0000   1.0000
     1.0000   1.0000   0.0000   0.0000   0.0000   0.0000   0.0000   0.0000
     0.0000   0.0000   0.0000   0.0000   0.0000   0.0000   0.0000   0.0000
     0.0000   0.0000   0.0000   0.0000   0.0000   0.0000

          k = 0.0000 0.1026 0.0000 ( 59961 PWs)   bands (ev):

   -17.2276 -14.8890 -10.9711  -8.4073  -6.6122  -6.2946  -5.7471  -4.2390
    -3.5298  -2.8188  -1.0877  -0.8759   0.0581   1.3084   2.3206   2.4214
     2.9322   3.3764   3.4464   3.4832   4.4950   4.8126   5.2309   5.9942
     6.2723   6.3958   6.8261   7.1212   7.2448   7.9830

     occupation numbers 
     1.0000   1.0000   1.0000   1.0000   1.0000   1.0000   1.0000   1.0000
     1.0000   1.0000   0.0000   0.0000   0.0000   0.0000   0.0000   0.0000
     0.0000   0.0000   0.0000   0.0000   0.0000   0.0000   0.0000   0.0000
     0.0000   0.0000   0.0000   0.0000   0.0000   0.0000

          k = 0.0000 0.1282 0.0000 ( 59975 PWs)   bands (ev):

   -17.1709 -14.9316 -11.0604  -8.6060  -6.5935  -6.0454  -5.7035  -4.2618
    -3.2629  -3.0586  -0.9240  -0.7966  -0.0359   1.2194   2.3989   2.5552
     2.9983   3.1352   3.2433   3.5544   4.5720   4.9038   5.1275   6.1613
     6.1929   6.5123   6.8178   7.2503   7.5176   7.6568

     occupation numbers 
     1.0000   1.0000   1.0000   1.0000   1.0000   1.0000   1.0000   1.0000
     1.0000   1.0000   0.0000   0.0000   0.0000   0.0000   0.0000   0.0000
     0.0000   0.0000   0.0000   0.0000   0.0000   0.0000   0.0000   0.0000
     0.0000   0.0000   0.0000   0.0000   0.0000   0.0000

          k = 0.0000 0.1539 0.0000 ( 59959 PWs)   bands (ev):

   -17.1022 -14.9875 -11.1413  -8.8275  -6.5514  -5.7678  -5.6509  -4.2913
    -3.3020  -2.9875  -0.8333  -0.6301  -0.1487   1.1313   2.4917   2.7063
     2.8887   2.9481   3.1516   3.6846   4.6679   5.0104   5.0309   5.9632
     6.3299   6.7170   6.7829   7.3262   7.3950   7.8248

     occupation numbers 
     1.0000   1.0000   1.0000   1.0000   1.0000   1.0000   1.0000   1.0000
     1.0000   1.0000   0.0000   0.0000   0.0000   0.0000   0.0000   0.0000
     0.0000   0.0000   0.0000   0.0000   0.0000   0.0000   0.0000   0.0000
     0.0000   0.0000   0.0000   0.0000   0.0000   0.0000

          k = 0.0000 0.1795 0.0000 ( 59945 PWs)   bands (ev):

   -17.0218 -15.0578 -11.2057  -9.0624  -6.4872  -5.5899  -5.4704  -4.3284
    -3.5461  -2.7203  -0.7671  -0.4247  -0.2744   1.0511   2.5837   2.6438
     2.7581   2.8714   3.2470   3.8355   4.7818   4.9542   5.1243   5.7354
     6.4993   6.6306   6.8750   7.2209   7.2573   7.5537

     occupation numbers 
     1.0000   1.0000   1.0000   1.0000   1.0000   1.0000   1.0000   1.0000
     1.0000   1.0000   0.0000   0.0000   0.0000   0.0000   0.0000   0.0000
     0.0000   0.0000   0.0000   0.0000   0.0000   0.0000   0.0000   0.0000
     0.0000   0.0000   0.0000   0.0000   0.0000   0.0000

          k = 0.0000 0.2052 0.0000 ( 59965 PWs)   bands (ev):

   -16.9304 -15.1431 -11.2476  -9.3029  -6.4031  -5.5211  -5.1611  -4.3735
    -3.7881  -2.4803  -0.7000  -0.4017  -0.2079   0.9845   2.4053   2.4933
     2.7620   3.0485   3.3753   4.0051   4.8955   4.9216   5.2142   5.5443
     6.3834   6.6704   6.8270   7.0465   7.1573   7.4115

     occupation numbers 
     1.0000   1.0000   1.0000   1.0000   1.0000   1.0000   1.0000   1.0000
     1.0000   1.0000   0.0000   0.0000   0.0000   0.0000   0.0000   0.0000
     0.0000   0.0000   0.0000   0.0000   0.0000   0.0000   0.0000   0.0000
     0.0000   0.0000   0.0000   0.0000   0.0000   0.0000

          k = 0.0000 0.2308 0.0000 ( 59901 PWs)   bands (ev):

   -16.8283 -15.2432 -11.2629  -9.5432  -6.3008  -5.4454  -4.8489  -4.4271
    -4.0226  -2.2921  -0.6298  -0.5121   0.0142   0.9361   2.1767   2.2950
     2.8966   3.2368   3.5231   4.1910   4.8772   5.0652   5.1681   5.4838
     6.1398   6.5365   6.7057   6.8445   7.2848   7.4757

     occupation numbers 
     1.0000   1.0000   1.0000   1.0000   1.0000   1.0000   1.0000   1.0000
     1.0000   1.0000   0.0000   0.0000   0.0000   0.0000   0.0000   0.0000
     0.0000   0.0000   0.0000   0.0000   0.0000   0.0000   0.0000   0.0000
     0.0000   0.0000   0.0000   0.0000   0.0000   0.0000

          k = 0.0000 0.2564 0.0000 ( 59885 PWs)   bands (ev):

   -16.7164 -15.3568 -11.2497  -9.7785  -6.1819  -5.3635  -4.5649  -4.4892
    -4.2214  -2.1856  -0.5804  -0.5585   0.2370   0.9093   1.9608   2.0974
     3.0537   3.4363   3.6885   4.3909   4.8743   5.0068   5.2316   5.4599
     6.0016   6.2145   6.3740   7.0233   7.1413   7.4831

     occupation numbers 
     1.0000   1.0000   1.0000   1.0000   1.0000   1.0000   1.0000   1.0000
     1.0000   1.0000   0.0000   0.0000   0.0000   0.0000   0.0000   0.0000
     0.0000   0.0000   0.0000   0.0000   0.0000   0.0000   0.0000   0.0000
     0.0000   0.0000   0.0000   0.0000   0.0000   0.0000

          k = 0.0000 0.2821 0.0000 ( 59894 PWs)   bands (ev):

   -16.5956 -15.4820 -11.2076 -10.0052  -6.0476  -5.2765  -4.5624  -4.5595
    -4.1335  -2.1840  -0.5883  -0.4901   0.4555   0.9063   1.7601   1.9067
     3.2267   3.6475   3.8708   4.6018   4.8347   4.8816   5.3149   5.4137
     5.8953   5.9272   6.1797   6.8245   7.2077   7.4451

     occupation numbers 
     1.0000   1.0000   1.0000   1.0000   1.0000   1.0000   1.0000   1.0000
     1.0000   1.0000   0.0000   0.0000   0.0000   0.0000   0.0000   0.0000
     0.0000   0.0000   0.0000   0.0000   0.0000   0.0000   0.0000   0.0000
     0.0000   0.0000   0.0000   0.0000   0.0000   0.0000

          k = 0.0000 0.3077 0.0000 ( 59886 PWs)   bands (ev):

   -16.4668 -15.6164 -11.1371 -10.2205  -5.8989  -5.1855  -4.7626  -4.6371
    -3.8402  -2.2847  -0.5432  -0.4302   0.6647   0.9284   1.5766   1.7243
     3.4140   3.8710   4.0693   4.6588   4.8207   4.8850   5.1412   5.5596
     5.6389   5.6631   6.2887   6.5057   7.1788   7.3985

     occupation numbers 
     1.0000   1.0000   1.0000   1.0000   1.0000   1.0000   1.0000   1.0000
     1.0000   1.0000   0.0000   0.0000   0.0000   0.0000   0.0000   0.0000
     0.0000   0.0000   0.0000   0.0000   0.0000   0.0000   0.0000   0.0000
     0.0000   0.0000   0.0000   0.0000   0.0000   0.0000

          k = 0.0000 0.3334 0.0000 ( 59884 PWs)   bands (ev):

   -16.3314 -15.7571 -11.0398 -10.4216  -5.7368  -5.0919  -4.9737  -4.7211
    -3.5352  -2.4627  -0.4746  -0.3859   0.8608   0.9761   1.4121   1.5499
     3.6141   4.1063   4.2826   4.4726   4.8679   4.9409   5.1095   5.2933
     5.3845   5.8278   6.1998   6.4615   6.9134   7.4387

     occupation numbers 
     1.0000   1.0000   1.0000   1.0000   1.0000   1.0000   1.0000   1.0000
     1.0000   1.0000   0.0000   0.0000   0.0000   0.0000   0.0000   0.0000
     0.0000   0.0000   0.0000   0.0000   0.0000   0.0000   0.0000   0.0000
     0.0000   0.0000   0.0000   0.0000   0.0000   0.0000

          k = 0.0000 0.3590 0.0000 ( 59876 PWs)   bands (ev):

   -16.1907 -15.9014 -10.9175 -10.6063  -5.5622  -5.1793  -4.9971  -4.8101
    -3.2373  -2.6917  -0.4118  -0.3647   1.0430   1.0492   1.2684   1.3815
     3.8252   4.2609   4.3546   4.5061   4.7950   4.8741   5.0705   5.1082
     5.3586   5.8761   6.0827   6.5140   6.8002   7.1963

     occupation numbers 
     1.0000   1.0000   1.0000   1.0000   1.0000   1.0000   1.0000   1.0000
     1.0000   1.0000   0.0000   0.0000   0.0000   0.0000   0.0000   0.0000
     0.0000   0.0000   0.0000   0.0000   0.0000   0.0000   0.0000   0.0000
     0.0000   0.0000   0.0000   0.0000   0.0000   0.0000

          k = 0.0000 0.3847 0.0000 ( 59882 PWs)   bands (ev):

   -16.0467 -16.0467 -10.7723 -10.7723  -5.3760  -5.3760  -4.9027  -4.9027
    -2.9537  -2.9537  -0.3729  -0.3729   1.1470   1.1470   1.2146   1.2146
     4.0436   4.0437   4.5905   4.5906   4.7398   4.7402   4.9991   4.9992
     5.6100   5.6103   6.3073   6.3076   6.9719   6.9721

     occupation numbers 
     1.0000   1.0000   1.0000   1.0000   1.0000   1.0000   1.0000   1.0000
     1.0000   1.0000   0.0000   0.0000   0.0000   0.0000   0.0000   0.0000
     0.0000   0.0000   0.0000   0.0000   0.0000   0.0000   0.0000   0.0000
     0.0000   0.0000   0.0000   0.0000   0.0000   0.0000

     the Fermi energy is    -1.9071 ev

!    total energy              =     -61.96425642 Ry
     Harris-Foulkes estimate   =     -61.96425642 Ry
     estimated scf accuracy    <          1.5E-10 Ry

     The total energy is the sum of the following terms:

     one-electron contribution =    -437.87717716 Ry
     hartree contribution      =     222.16407788 Ry
     xc contribution           =     -23.63208627 Ry
     ewald contribution        =     177.38092913 Ry
     smearing contrib. (-TS)   =      -0.00000000 Ry

     convergence has been achieved in   9 iterations

     Forces acting on atoms (cartesian axes, Ry/au):

     atom    1 type  1   force =     0.00000000   -0.00195065    0.03527685
     atom    2 type  1   force =     0.00000000    0.00195308   -0.03527685
     atom    3 type  1   force =     0.00000000   -0.00195308   -0.03527685
     atom    4 type  1   force =     0.00000000    0.00195065    0.03527685
     The non-local contrib.  to forces
     atom    1 type  1   force =     0.00000000   -0.25444875    0.22179704
     atom    2 type  1   force =     0.00000000    0.25443819   -0.22179586
     atom    3 type  1   force =     0.00000000   -0.25443819   -0.22179586
     atom    4 type  1   force =     0.00000000    0.25444875    0.22179704
     The ionic contribution  to forces
     atom    1 type  1   force =    -0.00000000    1.39635482   -9.83417623
     atom    2 type  1   force =    -0.00000000   -1.39635602    9.83417623
     atom    3 type  1   force =     0.00000000    1.39635608    9.83417596
     atom    4 type  1   force =     0.00000000   -1.39635488   -9.83417596
     The local contribution  to forces
     atom    1 type  1   force =    -0.00000000   -1.15367399    9.65651165
     atom    2 type  1   force =    -0.00000000    1.15369302   -9.65651740
     atom    3 type  1   force =     0.00000000   -1.15369238   -9.65651726
     atom    4 type  1   force =     0.00000000    1.15367399    9.65651165
     The core correction contribution to forces
     atom    1 type  1   force =     0.00000000    0.00981793   -0.00885196
     atom    2 type  1   force =     0.00000000   -0.00981482    0.00885236
     atom    3 type  1   force =    -0.00000000    0.00981472    0.00885235
     atom    4 type  1   force =    -0.00000000   -0.00981793   -0.00885196
     The Hubbard contrib.    to forces
     atom    1 type  1   force =     0.00000000    0.00000000    0.00000000
     atom    2 type  1   force =     0.00000000    0.00000000    0.00000000
     atom    3 type  1   force =     0.00000000    0.00000000    0.00000000
     atom    4 type  1   force =     0.00000000    0.00000000    0.00000000
     The SCF correction term to forces
     atom    1 type  1   force =     0.00000000   -0.00000068   -0.00000342
     atom    2 type  1   force =     0.00000000   -0.00000699    0.00000825
     atom    3 type  1   force =    -0.00000000    0.00000699    0.00000825
     atom    4 type  1   force =    -0.00000000    0.00000068   -0.00000342

     Total force =     0.070662     Total SCF correction =     0.000016

     Writing output data file p.save
 
     init_run     :      3.74s CPU      2.14s WALL (       1 calls)
     electrons    :    109.47s CPU     58.44s WALL (       1 calls)
     forces       :      0.68s CPU      0.36s WALL (       1 calls)

     Called by init_run:
     wfcinit      :      2.88s CPU      1.53s WALL (       1 calls)
     wfcinit:atom :      0.02s CPU      0.02s WALL (      36 calls)
     wfcinit:wfcr :      2.68s CPU      1.42s WALL (      36 calls)
     potinit      :      0.19s CPU      0.10s WALL (       1 calls)

     Called by electrons:
     c_bands      :     96.38s CPU     51.45s WALL (      10 calls)
     sum_band     :     12.68s CPU      6.63s WALL (      10 calls)
     v_of_rho     :      0.07s CPU      0.04s WALL (      10 calls)
     v_h          :      0.04s CPU      0.02s WALL (      10 calls)
     v_xc         :      0.04s CPU      0.02s WALL (      11 calls)
     mix_rho      :      0.11s CPU      0.07s WALL (      10 calls)

     Called by c_bands:
     init_us_2    :      0.75s CPU      0.41s WALL (     792 calls)
     cegterg      :     94.39s CPU     49.07s WALL (     360 calls)

     Called by sum_band:

     Called by *egterg:
     h_psi        :     60.24s CPU     31.34s WALL (    1493 calls)
     g_psi        :      0.61s CPU      0.28s WALL (    1097 calls)
     cdiaghg      :     17.53s CPU      9.24s WALL (    1421 calls)
     cegterg:over :      5.38s CPU      2.75s WALL (    1097 calls)
     cegterg:upda :      6.12s CPU      3.14s WALL (    1097 calls)
     cegterg:last :      2.26s CPU      1.20s WALL (     396 calls)
     cdiaghg:chol :      0.64s CPU      0.33s WALL (    1421 calls)
     cdiaghg:inve :      0.20s CPU      0.09s WALL (    1421 calls)
     cdiaghg:para :      0.99s CPU      0.51s WALL (    2842 calls)

     Called by h_psi:
     h_psi:pot    :     59.14s CPU     30.81s WALL (    1493 calls)
     h_psi:calbec :      1.47s CPU      0.83s WALL (    1493 calls)
     vloc_psi     :     56.38s CPU     29.35s WALL (    1493 calls)
     add_vuspsi   :      1.26s CPU      0.61s WALL (    1493 calls)

     General routines
     calbec       :      1.61s CPU      0.88s WALL (    1637 calls)
     fft          :      0.16s CPU      0.10s WALL (      45 calls)
     fftw         :     61.27s CPU     31.68s WALL (   67128 calls)
 
     Parallel routines
     fft_scatt_xy :     15.34s CPU      3.78s WALL (   67173 calls)
     fft_scatt_yz :     24.50s CPU     11.49s WALL (   67173 calls)
 
     PWSCF        :  1m59.14s CPU     1m 6.21s WALL

 
   This run was terminated on:  21: 8:12  27Jul2018            

=------------------------------------------------------------------------------=
   JOB DONE.
=------------------------------------------------------------------------------=
