
     Program PWSCF v.6.2 starts on 27Jul2018 at 21: 6:29 

     This program is part of the open-source Quantum ESPRESSO suite
     for quantum simulation of materials; please cite
         "P. Giannozzi et al., J. Phys.:Condens. Matter 21 395502 (2009);
         "P. Giannozzi et al., J. Phys.:Condens. Matter 29 465901 (2017);
          URL http://www.quantum-espresso.org", 
     in publications or presentations arising from this work. More details at
     http://www.quantum-espresso.org/quote

     Parallel version (MPI & OpenMP), running on      64 processor cores
     Number of MPI processes:                32
     Threads/MPI process:                     2

     MPI processes distributed on     1 nodes
     R & G space division:  proc/nbgrp/npool/nimage =      32
     Waiting for input...
     Reading input from standard input

     Current dimensions of program PWSCF are:
     Max number of different atomic species (ntypx) = 20
     Max number of k-points (npk) =  40000
     Max angular momentum in pseudopotentials (lmaxx) =  3

     Subspace diagonalization in iterative solution of the eigenvalue problem:
     one sub-group per band group will be used
     scalapack distributed-memory algorithm (size of sub-group:  4*  4 procs)

 
     Parallelization info
     --------------------
     sticks:   dense  smooth     PW     G-vecs:    dense   smooth      PW
     Min          71      71     19                14985    14985    2167
     Max          72      72     20                14995    14995    2184
     Sum        2283    2283    637               479677   479677   69753
 


     bravais-lattice index     =            0
     lattice parameter (alat)  =       6.2737  a.u.
     unit-cell volume          =    2142.8622 (a.u.)^3
     number of atoms/cell      =            4
     number of atomic types    =            1
     number of electrons       =        20.00
     number of Kohn-Sham states=           14
     kinetic-energy cutoff     =     140.0000  Ry
     charge density cutoff     =     560.0000  Ry
     convergence threshold     =      1.0E-09
     mixing beta               =       0.7000
     number of iterations used =            8  plain     mixing
     Exchange-correlation      = PZ ( 1  1  0  0 0 0)

     celldm(1)=   6.273702  celldm(2)=   0.000000  celldm(3)=   0.000000
     celldm(4)=   0.000000  celldm(5)=   0.000000  celldm(6)=   0.000000

     crystal axes: (cart. coord. in units of alat)
               a(1) = (   1.000000   0.000000   0.000000 )  
               a(2) = (   0.000000   1.299858   0.000000 )  
               a(3) = (   0.000000   0.000000   6.676157 )  

     reciprocal axes: (cart. coord. in units 2 pi/alat)
               b(1) = (  1.000000  0.000000  0.000000 )  
               b(2) = (  0.000000  0.769315  0.000000 )  
               b(3) = (  0.000000  0.000000  0.149787 )  


     PseudoPot. # 1 for P  read from file:
     ./P.UPF
     MD5 check sum: b88c35a6f4b891eaa010a3085e4716c8
     Pseudo is Norm-conserving + core correction, Zval =  5.0
     Generated using "atomic" code by A. Dal Corso v.6.0 svn rev. 13079
     Using radial grid of 1147 points,  2 beta functions with: 
                l(1) =   0
                l(2) =   1

     atomic species   valence    mass     pseudopotential
       P               5.00    30.97400     P ( 1.00)

      4 Sym. Ops. (no inversion) found ( 2 have fractional translation)


                                    s                        frac. trans.

      isym =  1     identity                                     

 cryst.   s( 1) = (     1          0          0      )
                  (     0          1          0      )
                  (     0          0          1      )

 cart.    s( 1) = (  1.0000000  0.0000000  0.0000000 )
                  (  0.0000000  1.0000000  0.0000000 )
                  (  0.0000000  0.0000000  1.0000000 )


      isym =  2     180 deg rotation - cart. axis [0,0,1]        

 cryst.   s( 2) = (    -1          0          0      )    f =(  0.5000000 )
                  (     0         -1          0      )       (  0.4999999 )
                  (     0          0          1      )       (  0.0000000 )

 cart.    s( 2) = ( -1.0000000  0.0000000  0.0000000 )    f =(  0.5000000 )
                  (  0.0000000 -1.0000000  0.0000000 )       (  0.6499291 )
                  (  0.0000000  0.0000000  1.0000000 )       (  0.0000000 )


      isym =  3     inv. 180 deg rotation - cart. axis [0,1,0]   

 cryst.   s( 3) = (     1          0          0      )    f =(  0.5000000 )
                  (     0         -1          0      )       (  0.4999999 )
                  (     0          0          1      )       (  0.0000000 )

 cart.    s( 3) = (  1.0000000  0.0000000  0.0000000 )    f =(  0.5000000 )
                  (  0.0000000 -1.0000000  0.0000000 )       (  0.6499291 )
                  (  0.0000000  0.0000000  1.0000000 )       (  0.0000000 )


      isym =  4     inv. 180 deg rotation - cart. axis [1,0,0]   

 cryst.   s( 4) = (    -1          0          0      )
                  (     0          1          0      )
                  (     0          0          1      )

 cart.    s( 4) = ( -1.0000000  0.0000000  0.0000000 )
                  (  0.0000000  1.0000000  0.0000000 )
                  (  0.0000000  0.0000000  1.0000000 )


   Cartesian axes

     site n.     atom                  positions (alat units)
         1          P    tau(   1) = (   0.5000000   0.5432110   1.2355230  )
         2          P    tau(   2) = (   0.5000000   0.7566476   1.8874023  )
         3          P    tau(   3) = (   0.0000000   1.1931401   1.8874023  )
         4          P    tau(   4) = (   0.0000000   0.1067183   1.2355230  )

   Crystallographic axes

     site n.     atom                  positions (cryst. coord.)
         1          P    tau(   1) = (  0.5000000  0.4179001  0.1850650  )
         2          P    tau(   2) = (  0.5000000  0.5821000  0.2827079  )
         3          P    tau(   3) = (  0.0000000  0.9179000  0.2827079  )
         4          P    tau(   4) = (  0.0000000  0.0821000  0.1850650  )

     number of k points=    35  gaussian smearing, width (Ry)=  0.0010
                       cart. coord. in units 2pi/alat
        k(    1) = (   0.0000000   0.0000000   0.0000000), wk =   0.0185185
        k(    2) = (   0.0000000   0.0854794   0.0000000), wk =   0.0370370
        k(    3) = (   0.0000000   0.1709588   0.0000000), wk =   0.0370370
        k(    4) = (   0.0000000   0.2564382   0.0000000), wk =   0.0370370
        k(    5) = (   0.0000000   0.3419176   0.0000000), wk =   0.0370370
        k(    6) = (   0.0833333   0.0000000   0.0000000), wk =   0.0370370
        k(    7) = (   0.0833333   0.0854794   0.0000000), wk =   0.0740741
        k(    8) = (   0.0833333   0.1709588   0.0000000), wk =   0.0740741
        k(    9) = (   0.0833333   0.2564382   0.0000000), wk =   0.0740741
        k(   10) = (   0.0833333   0.3419176   0.0000000), wk =   0.0740741
        k(   11) = (   0.1666667   0.0000000   0.0000000), wk =   0.0370370
        k(   12) = (   0.1666667   0.0854794   0.0000000), wk =   0.0740741
        k(   13) = (   0.1666667   0.1709588   0.0000000), wk =   0.0740741
        k(   14) = (   0.1666667   0.2564382   0.0000000), wk =   0.0740741
        k(   15) = (   0.1666667   0.3419176   0.0000000), wk =   0.0740741
        k(   16) = (   0.2500000   0.0000000   0.0000000), wk =   0.0370370
        k(   17) = (   0.2500000   0.0854794   0.0000000), wk =   0.0740741
        k(   18) = (   0.2500000   0.1709588   0.0000000), wk =   0.0740741
        k(   19) = (   0.2500000   0.2564382   0.0000000), wk =   0.0740741
        k(   20) = (   0.2500000   0.3419176   0.0000000), wk =   0.0740741
        k(   21) = (   0.3333333   0.0000000   0.0000000), wk =   0.0370370
        k(   22) = (   0.3333333   0.0854794   0.0000000), wk =   0.0740741
        k(   23) = (   0.3333333   0.1709588   0.0000000), wk =   0.0740741
        k(   24) = (   0.3333333   0.2564382   0.0000000), wk =   0.0740741
        k(   25) = (   0.3333333   0.3419176   0.0000000), wk =   0.0740741
        k(   26) = (   0.4166667   0.0000000   0.0000000), wk =   0.0370370
        k(   27) = (   0.4166667   0.0854794   0.0000000), wk =   0.0740741
        k(   28) = (   0.4166667   0.1709588   0.0000000), wk =   0.0740741
        k(   29) = (   0.4166667   0.2564382   0.0000000), wk =   0.0740741
        k(   30) = (   0.4166667   0.3419176   0.0000000), wk =   0.0740741
        k(   31) = (  -0.5000000   0.0000000   0.0000000), wk =   0.0185185
        k(   32) = (  -0.5000000   0.0854794   0.0000000), wk =   0.0370370
        k(   33) = (  -0.5000000   0.1709588   0.0000000), wk =   0.0370370
        k(   34) = (  -0.5000000   0.2564382   0.0000000), wk =   0.0370370
        k(   35) = (  -0.5000000   0.3419176   0.0000000), wk =   0.0370370

                       cryst. coord.
        k(    1) = (   0.0000000   0.0000000   0.0000000), wk =   0.0185185
        k(    2) = (   0.0000000   0.1111111   0.0000000), wk =   0.0370370
        k(    3) = (   0.0000000   0.2222222   0.0000000), wk =   0.0370370
        k(    4) = (   0.0000000   0.3333333   0.0000000), wk =   0.0370370
        k(    5) = (   0.0000000   0.4444444   0.0000000), wk =   0.0370370
        k(    6) = (   0.0833333   0.0000000   0.0000000), wk =   0.0370370
        k(    7) = (   0.0833333   0.1111111   0.0000000), wk =   0.0740741
        k(    8) = (   0.0833333   0.2222222   0.0000000), wk =   0.0740741
        k(    9) = (   0.0833333   0.3333333   0.0000000), wk =   0.0740741
        k(   10) = (   0.0833333   0.4444444   0.0000000), wk =   0.0740741
        k(   11) = (   0.1666667   0.0000000   0.0000000), wk =   0.0370370
        k(   12) = (   0.1666667   0.1111111   0.0000000), wk =   0.0740741
        k(   13) = (   0.1666667   0.2222222   0.0000000), wk =   0.0740741
        k(   14) = (   0.1666667   0.3333333   0.0000000), wk =   0.0740741
        k(   15) = (   0.1666667   0.4444444   0.0000000), wk =   0.0740741
        k(   16) = (   0.2500000   0.0000000   0.0000000), wk =   0.0370370
        k(   17) = (   0.2500000   0.1111111   0.0000000), wk =   0.0740741
        k(   18) = (   0.2500000   0.2222222   0.0000000), wk =   0.0740741
        k(   19) = (   0.2500000   0.3333333   0.0000000), wk =   0.0740741
        k(   20) = (   0.2500000   0.4444444   0.0000000), wk =   0.0740741
        k(   21) = (   0.3333333   0.0000000   0.0000000), wk =   0.0370370
        k(   22) = (   0.3333333   0.1111111   0.0000000), wk =   0.0740741
        k(   23) = (   0.3333333   0.2222222   0.0000000), wk =   0.0740741
        k(   24) = (   0.3333333   0.3333333   0.0000000), wk =   0.0740741
        k(   25) = (   0.3333333   0.4444444   0.0000000), wk =   0.0740741
        k(   26) = (   0.4166667   0.0000000   0.0000000), wk =   0.0370370
        k(   27) = (   0.4166667   0.1111111   0.0000000), wk =   0.0740741
        k(   28) = (   0.4166667   0.2222222   0.0000000), wk =   0.0740741
        k(   29) = (   0.4166667   0.3333333   0.0000000), wk =   0.0740741
        k(   30) = (   0.4166667   0.4444444   0.0000000), wk =   0.0740741
        k(   31) = (  -0.5000000   0.0000000   0.0000000), wk =   0.0185185
        k(   32) = (  -0.5000000   0.1111111   0.0000000), wk =   0.0370370
        k(   33) = (  -0.5000000   0.2222222   0.0000000), wk =   0.0370370
        k(   34) = (  -0.5000000   0.3333333   0.0000000), wk =   0.0370370
        k(   35) = (  -0.5000000   0.4444444   0.0000000), wk =   0.0370370

     Dense  grid:   479677 G-vectors     FFT dimensions: (  48,  64, 320)

     Dynamical RAM for                 wfc:       0.40 MB

     Dynamical RAM for     wfc (w. buffer):      14.40 MB

     Dynamical RAM for           str. fact:       0.23 MB

     Dynamical RAM for           local pot:       0.00 MB

     Dynamical RAM for          nlocal pot:       0.46 MB

     Dynamical RAM for                qrad:       0.16 MB

     Dynamical RAM for          rho,v,vnew:       1.39 MB

     Dynamical RAM for               rhoin:       0.46 MB

     Dynamical RAM for            rho*nmix:       3.66 MB

     Dynamical RAM for           G-vectors:       0.97 MB

     Dynamical RAM for          h,s,v(r/c):       0.01 MB

     Dynamical RAM for          <psi|beta>:       0.00 MB

     Dynamical RAM for                 psi:       1.60 MB

     Dynamical RAM for                hpsi:       1.60 MB

     Dynamical RAM for      wfcinit/wfcrot:       0.92 MB

     Estimated static dynamical RAM per process >      23.37 MB

     Estimated max dynamical RAM per process >      26.58 MB

     Estimated total dynamical RAM >     850.57 MB

     Check: negative/imaginary core charge=   -0.000001    0.000000

     Initial potential from superposition of free atoms

     starting charge   19.99943, renormalised to   20.00000

     negative rho (up, down):  1.936E-06 0.000E+00
     Starting wfc are   16 randomized atomic wfcs

     total cpu time spent up to now is        1.7 secs

     Self-consistent Calculation

     iteration #  1     ecut=   140.00 Ry     beta= 0.70
     Davidson diagonalization with overlap
     ethr =  1.00E-02,  avg # of iterations =  3.1

     Threshold (ethr) on eigenvalues was too large:
     Diagonalizing with lowered threshold

     Davidson diagonalization with overlap
     ethr =  3.43E-04,  avg # of iterations =  2.4

     total cpu time spent up to now is        7.0 secs

     total energy              =     -62.25558693 Ry
     Harris-Foulkes estimate   =     -62.28054458 Ry
     estimated scf accuracy    <       0.06609025 Ry

     iteration #  2     ecut=   140.00 Ry     beta= 0.70
     Davidson diagonalization with overlap
     ethr =  3.30E-04,  avg # of iterations =  2.0

     total cpu time spent up to now is        9.2 secs

     total energy              =     -62.25855041 Ry
     Harris-Foulkes estimate   =     -62.26173580 Ry
     estimated scf accuracy    <       0.00565808 Ry

     iteration #  3     ecut=   140.00 Ry     beta= 0.70
     Davidson diagonalization with overlap
     ethr =  2.83E-05,  avg # of iterations =  3.3

     total cpu time spent up to now is       12.1 secs

     total energy              =     -62.25918689 Ry
     Harris-Foulkes estimate   =     -62.26125957 Ry
     estimated scf accuracy    <       0.00392297 Ry

     iteration #  4     ecut=   140.00 Ry     beta= 0.70
     Davidson diagonalization with overlap
     ethr =  1.96E-05,  avg # of iterations =  2.1

     total cpu time spent up to now is       14.5 secs

     total energy              =     -62.26014586 Ry
     Harris-Foulkes estimate   =     -62.26020376 Ry
     estimated scf accuracy    <       0.00012374 Ry

     iteration #  5     ecut=   140.00 Ry     beta= 0.70
     Davidson diagonalization with overlap
     ethr =  6.19E-07,  avg # of iterations =  2.6

     total cpu time spent up to now is       17.8 secs

     total energy              =     -62.26017099 Ry
     Harris-Foulkes estimate   =     -62.26018028 Ry
     estimated scf accuracy    <       0.00002276 Ry

     iteration #  6     ecut=   140.00 Ry     beta= 0.70
     Davidson diagonalization with overlap
     ethr =  1.14E-07,  avg # of iterations =  2.2

     total cpu time spent up to now is       20.0 secs

     total energy              =     -62.26017550 Ry
     Harris-Foulkes estimate   =     -62.26017905 Ry
     estimated scf accuracy    <       0.00001323 Ry

     iteration #  7     ecut=   140.00 Ry     beta= 0.70
     Davidson diagonalization with overlap
     ethr =  6.62E-08,  avg # of iterations =  2.0

     total cpu time spent up to now is       22.1 secs

     total energy              =     -62.26017726 Ry
     Harris-Foulkes estimate   =     -62.26017727 Ry
     estimated scf accuracy    <       0.00000007 Ry

     iteration #  8     ecut=   140.00 Ry     beta= 0.70
     Davidson diagonalization with overlap
     ethr =  3.57E-10,  avg # of iterations =  3.2

     total cpu time spent up to now is       25.0 secs

     total energy              =     -62.26017730 Ry
     Harris-Foulkes estimate   =     -62.26017731 Ry
     estimated scf accuracy    <       0.00000001 Ry

     iteration #  9     ecut=   140.00 Ry     beta= 0.70
     Davidson diagonalization with overlap
     ethr =  5.87E-11,  avg # of iterations =  1.9

     total cpu time spent up to now is       27.1 secs

     total energy              =     -62.26017731 Ry
     Harris-Foulkes estimate   =     -62.26017731 Ry
     estimated scf accuracy    <          1.5E-09 Ry

     iteration # 10     ecut=   140.00 Ry     beta= 0.70
     Davidson diagonalization with overlap
     ethr =  7.40E-12,  avg # of iterations =  2.5

     total cpu time spent up to now is       29.7 secs

     End of self-consistent calculation

          k = 0.0000 0.0000 0.0000 ( 59965 PWs)   bands (ev):

   -17.3823 -14.8528 -10.8169  -8.0210  -6.8225  -6.5696  -5.8932  -4.2694
    -4.1540  -2.0480  -1.7521  -0.9303   0.2300   1.4736

     occupation numbers 
     1.0000   1.0000   1.0000   1.0000   1.0000   1.0000   1.0000   1.0000
     1.0000   1.0000   0.0000   0.0000   0.0000   0.0000

          k = 0.0000 0.0855 0.0000 ( 59967 PWs)   bands (ev):

   -17.3116 -14.9010 -10.9777  -8.2988  -6.6186  -6.4651  -5.8384  -4.2953
    -3.7074  -2.6652  -1.2021  -0.8789   0.1115   1.3264

     occupation numbers 
     1.0000   1.0000   1.0000   1.0000   1.0000   1.0000   1.0000   1.0000
     1.0000   1.0000   0.0000   0.0000   0.0000   0.0000

          k = 0.0000 0.1710 0.0000 ( 59933 PWs)   bands (ev):

   -17.1033 -15.0733 -11.2338  -8.9934  -6.5110  -5.6793  -5.6089  -4.3851
    -3.4658  -2.8262  -0.7611  -0.4851  -0.2392   1.0463

     occupation numbers 
     1.0000   1.0000   1.0000   1.0000   1.0000   1.0000   1.0000   1.0000
     1.0000   1.0000   0.0000   0.0000   0.0000   0.0000

          k = 0.0000 0.2564 0.0000 ( 59885 PWs)   bands (ev):

   -16.7702 -15.4047 -11.2807  -9.7909  -6.1800  -5.4330  -4.6095  -4.5608
    -4.2221  -2.2177  -0.5858  -0.5339   0.2469   0.8856

     occupation numbers 
     1.0000   1.0000   1.0000   1.0000   1.0000   1.0000   1.0000   1.0000
     1.0000   1.0000   0.0000   0.0000   0.0000   0.0000

          k = 0.0000 0.3419 0.0000 ( 59890 PWs)   bands (ev):

   -16.3386 -15.8571 -11.0223 -10.5003  -5.6784  -5.1313  -5.0435  -4.8221
    -3.4810  -2.5794  -0.4437  -0.3574   0.9295   0.9776

     occupation numbers 
     1.0000   1.0000   1.0000   1.0000   1.0000   1.0000   1.0000   1.0000
     1.0000   1.0000   0.0000   0.0000   0.0000   0.0000

          k = 0.0833 0.0000 0.0000 ( 59973 PWs)   bands (ev):

   -17.2994 -14.7674 -10.8889  -7.9540  -6.7484  -6.7119  -6.3068  -4.6500
    -4.1086  -2.0555  -1.6733  -0.2870   0.8756   0.9862

     occupation numbers 
     1.0000   1.0000   1.0000   1.0000   1.0000   1.0000   1.0000   1.0000
     1.0000   1.0000   0.0000   0.0000   0.0000   0.0000

          k = 0.0833 0.0855 0.0000 ( 59948 PWs)   bands (ev):

   -17.2289 -14.8166 -11.0240  -8.2516  -6.6844  -6.6791  -5.9804  -4.7829
    -3.6488  -2.6397  -1.1670  -0.2274   0.6138   1.0245

     occupation numbers 
     1.0000   1.0000   1.0000   1.0000   1.0000   1.0000   1.0000   1.0000
     1.0000   1.0000   0.0000   0.0000   0.0000   0.0000

          k = 0.0833 0.1710 0.0000 ( 59971 PWs)   bands (ev):

   -17.0211 -14.9913 -11.2388  -8.9556  -6.5031  -6.4947  -5.1703  -4.9501
    -3.4302  -2.8965  -0.5904  -0.0024   0.3078   0.9188

     occupation numbers 
     1.0000   1.0000   1.0000   1.0000   1.0000   1.0000   1.0000   1.0000
     1.0000   1.0000   0.0000   0.0000   0.0000   0.0000

          k = 0.0833 0.2564 0.0000 ( 59896 PWs)   bands (ev):

   -16.6890 -15.3249 -11.2573  -9.7498  -6.2135  -6.1439  -5.1795  -4.3384
    -4.0669  -2.4478  -0.1697   0.1611   0.4210   0.8665

     occupation numbers 
     1.0000   1.0000   1.0000   1.0000   1.0000   1.0000   1.0000   1.0000
     1.0000   1.0000   0.0000   0.0000   0.0000   0.0000

          k = 0.0833 0.3419 0.0000 ( 59882 PWs)   bands (ev):

   -16.2586 -15.7778 -10.9844 -10.4576  -5.8653  -5.6369  -5.4936  -4.9928
    -3.2233  -2.5824   0.0208   0.0455   0.7629   0.9869

     occupation numbers 
     1.0000   1.0000   1.0000   1.0000   1.0000   1.0000   1.0000   1.0000
     1.0000   1.0000   0.0000   0.0000   0.0000   0.0000

          k = 0.1667 0.0000 0.0000 ( 59967 PWs)   bands (ev):

   -17.0515 -14.5119 -11.1685  -7.7580  -7.3377  -7.0058  -6.5293  -5.0723
    -3.9968  -2.2275  -1.4390   0.0360   1.2659   1.8760

     occupation numbers 
     1.0000   1.0000   1.0000   1.0000   1.0000   1.0000   1.0000   1.0000
     1.0000   1.0000   0.0000   0.0000   0.0000   0.0000

          k = 0.1667 0.0855 0.0000 ( 59917 PWs)   bands (ev):

   -16.9817 -14.5646 -11.2299  -8.1800  -7.3151  -7.0668  -5.8970  -5.3395
    -3.6405  -2.6532  -1.0713  -0.0307   1.2778   2.0222

     occupation numbers 
     1.0000   1.0000   1.0000   1.0000   1.0000   1.0000   1.0000   1.0000
     1.0000   1.0000   0.0000   0.0000   0.0000   0.0000

          k = 0.1667 0.1710 0.0000 ( 59910 PWs)   bands (ev):

   -16.7759 -14.7480 -11.3118  -8.8981  -7.4556  -6.7185  -5.6881  -4.9172
    -3.3569  -3.2317  -0.4877   0.2072   0.9438   1.7247

     occupation numbers 
     1.0000   1.0000   1.0000   1.0000   1.0000   1.0000   1.0000   1.0000
     1.0000   1.0000   0.0000   0.0000   0.0000   0.0000

          k = 0.1667 0.2564 0.0000 ( 59887 PWs)   bands (ev):

   -16.4470 -15.0889 -11.2311  -9.6672  -7.3388  -6.4987  -5.8339  -4.2776
    -3.7939  -3.0943   0.1454   0.4399   0.9026   1.7006

     occupation numbers 
     1.0000   1.0000   1.0000   1.0000   1.0000   1.0000   1.0000   1.0000
     1.0000   1.0000   0.0000   0.0000   0.0000   0.0000

          k = 0.1667 0.3419 0.0000 ( 59866 PWs)   bands (ev):

   -16.0205 -15.5428 -10.9068 -10.3646  -7.0548  -6.7069  -5.4815  -4.8843
    -3.2739  -3.0844   0.3847   0.8060   0.8268   1.4227

     occupation numbers 
     1.0000   1.0000   1.0000   1.0000   1.0000   1.0000   1.0000   1.0000
     1.0000   1.0000   0.0000   0.0000   0.0000   0.0000

          k = 0.2500 0.0000 0.0000 ( 59948 PWs)   bands (ev):

   -16.6418 -14.0879 -11.7633  -8.4323  -7.4530  -7.3986  -6.1773  -5.0617
    -3.9141  -2.6140  -1.0578  -0.8082   1.0528   1.4550

     occupation numbers 
     1.0000   1.0000   1.0000   1.0000   1.0000   1.0000   1.0000   1.0000
     1.0000   1.0000   0.0000   0.0000   0.0000   0.0000

          k = 0.2500 0.0855 0.0000 ( 59963 PWs)   bands (ev):

   -16.5733 -14.1500 -11.7347  -8.6298  -7.7363  -7.3708  -5.6322  -5.3450
    -3.8098  -2.8346  -0.8547  -0.6134   0.8348   1.4996

     occupation numbers 
     1.0000   1.0000   1.0000   1.0000   1.0000   1.0000   1.0000   1.0000
     1.0000   1.0000   0.0000   0.0000   0.0000   0.0000

          k = 0.2500 0.1710 0.0000 ( 59927 PWs)   bands (ev):

   -16.3716 -14.3543 -11.6194  -9.1162  -8.0904  -7.2698  -5.7005  -4.7843
    -3.8351  -3.2917  -0.3832   0.1338   0.1450   2.3644

     occupation numbers 
     1.0000   1.0000   1.0000   1.0000   1.0000   1.0000   1.0000   1.0000
     1.0000   1.0000   0.0000   0.0000   0.0000   0.0000

          k = 0.2500 0.2564 0.0000 ( 59875 PWs)   bands (ev):

   -16.0495 -14.7091 -11.3619  -9.7420  -8.1691  -7.3773  -5.7153  -4.4697
    -3.8914  -3.5711  -0.0813   0.2705   1.1709   2.0145

     occupation numbers 
     1.0000   1.0000   1.0000   1.0000   1.0000   1.0000   1.0000   1.0000
     1.0000   1.0000   0.0000   0.0000   0.0000   0.0000

          k = 0.2500 0.3419 0.0000 ( 59891 PWs)   bands (ev):

   -15.6319 -15.1624 -10.9407 -10.3811  -8.0012  -7.6871  -5.3828  -4.8862
    -3.8027  -3.6371   0.3579   1.0529   1.0817   1.7437

     occupation numbers 
     1.0000   1.0000   1.0000   1.0000   1.0000   1.0000   1.0000   1.0000
     1.0000   1.0000   0.0000   0.0000   0.0000   0.0000

          k = 0.3333 0.0000 0.0000 ( 59992 PWs)   bands (ev):

   -16.0758 -13.4982 -12.6262  -9.6435  -7.3768  -7.0907  -5.7206  -4.8587
    -4.0295  -3.1810  -1.1736  -0.5709  -0.0169   0.5067

     occupation numbers 
     1.0000   1.0000   1.0000   1.0000   1.0000   1.0000   1.0000   1.0000
     1.0000   1.0000   0.0000   0.0000   0.0000   0.0000

          k = 0.3333 0.0855 0.0000 ( 59967 PWs)   bands (ev):

   -16.0099 -13.6003 -12.5115  -9.7125  -7.7118  -7.1228  -5.3262  -5.1606
    -4.1488  -3.2171  -0.6946  -0.5155  -0.0398   0.4066

     occupation numbers 
     1.0000   1.0000   1.0000   1.0000   1.0000   1.0000   1.0000   1.0000
     1.0000   1.0000   0.0000   0.0000   0.0000   0.0000

          k = 0.3333 0.1710 0.0000 ( 59954 PWs)   bands (ev):

   -15.8163 -13.8604 -12.2227  -9.9349  -8.1716  -7.2597  -5.6623  -4.8919
    -4.3227  -3.2528  -0.5781  -0.1732   0.4065   1.3456

     occupation numbers 
     1.0000   1.0000   1.0000   1.0000   1.0000   1.0000   1.0000   1.0000
     1.0000   1.0000   0.0000   0.0000   0.0000   0.0000

          k = 0.3333 0.2564 0.0000 ( 59957 PWs)   bands (ev):

   -15.5084 -14.2302 -11.8193 -10.3182  -8.3893  -7.5826  -5.8823  -4.9963
    -4.3099  -3.3722  -0.3182   0.3194   1.4731   1.6071

     occupation numbers 
     1.0000   1.0000   1.0000   1.0000   1.0000   1.0000   1.0000   1.0000
     1.0000   1.0000   0.0000   0.0000   0.0000   0.0000

          k = 0.3333 0.3419 0.0000 ( 59942 PWs)   bands (ev):

   -15.1115 -14.6667 -11.3350 -10.8122  -8.3136  -8.0014  -5.7361  -5.3785
    -4.0785  -3.7135   0.2800   0.9005   1.2136   2.0092

     occupation numbers 
     1.0000   1.0000   1.0000   1.0000   1.0000   1.0000   1.0000   1.0000
     1.0000   1.0000   0.0000   0.0000   0.0000   0.0000

          k = 0.4167 0.0000 0.0000 ( 59958 PWs)   bands (ev):

   -15.3638 -13.5889 -12.7478 -10.8009  -7.1016  -6.8046  -5.2240  -4.7087
    -4.2795  -3.7974  -0.9437  -0.7323  -0.5241   0.3267

     occupation numbers 
     1.0000   1.0000   1.0000   1.0000   1.0000   1.0000   1.0000   1.0000
     1.0000   1.0000   0.0000   0.0000   0.0000   0.0000

          k = 0.4167 0.0855 0.0000 ( 59991 PWs)   bands (ev):

   -15.3032 -13.6054 -12.7021 -10.8373  -7.3782  -6.8623  -5.2221  -5.1596
    -4.1745  -3.6234  -0.8504  -0.6704  -0.1245   0.1809

     occupation numbers 
     1.0000   1.0000   1.0000   1.0000   1.0000   1.0000   1.0000   1.0000
     1.0000   1.0000   0.0000   0.0000   0.0000   0.0000

          k = 0.4167 0.1710 0.0000 ( 59972 PWs)   bands (ev):

   -15.1269 -13.6832 -12.5549 -10.9645  -7.8229  -7.0040  -5.9932  -5.3097
    -4.1707  -3.3419  -0.8267   0.1897   0.2569   0.9303

     occupation numbers 
     1.0000   1.0000   1.0000   1.0000   1.0000   1.0000   1.0000   1.0000
     1.0000   1.0000   0.0000   0.0000   0.0000   0.0000

          k = 0.4167 0.2564 0.0000 ( 59980 PWs)   bands (ev):

   -14.8525 -13.8690 -12.2961 -11.2105  -8.0663  -7.2411  -6.5351  -5.7232
    -4.0761  -3.3620  -0.3115   0.5948   0.7147   1.7855

     occupation numbers 
     1.0000   1.0000   1.0000   1.0000   1.0000   1.0000   1.0000   1.0000
     1.0000   1.0000   0.0000   0.0000   0.0000   0.0000

          k = 0.4167 0.3419 0.0000 ( 60006 PWs)   bands (ev):

   -14.5136 -14.1633 -11.9466 -11.5599  -8.0045  -7.6713  -6.5293  -6.1907
    -3.8537  -3.5809   0.0019   0.3545   1.6795   2.4745

     occupation numbers 
     1.0000   1.0000   1.0000   1.0000   1.0000   1.0000   1.0000   1.0000
     1.0000   1.0000   0.0000   0.0000   0.0000   0.0000

          k =-0.5000 0.0000 0.0000 ( 59984 PWs)   bands (ev):

   -14.5236 -14.5236 -11.8442 -11.8442  -6.8154  -6.8154  -4.8266  -4.8266
    -4.2436  -4.2436  -0.8838  -0.8838  -0.3168  -0.3168

     occupation numbers 
     1.0000   1.0000   1.0000   1.0000   1.0000   1.0000   1.0000   1.0000
     1.0000   1.0000   0.0000   0.0000   0.0000   0.0000

          k =-0.5000 0.0855 0.0000 ( 59912 PWs)   bands (ev):

   -14.4765 -14.4765 -11.8599 -11.8599  -6.9727  -6.9727  -5.2455  -5.2455
    -3.9086  -3.9086  -1.0262  -1.0262   0.3865   0.3865

     occupation numbers 
     1.0000   1.0000   1.0000   1.0000   1.0000   1.0000   1.0000   1.0000
     1.0000   1.0000   0.0000   0.0000   0.0000   0.0000

          k =-0.5000 0.1710 0.0000 ( 59928 PWs)   bands (ev):

   -14.3469 -14.3469 -11.9172 -11.9172  -7.2790  -7.2790  -5.8403  -5.8403
    -3.7104  -3.7104  -0.4912  -0.4912   0.7297   0.7297

     occupation numbers 
     1.0000   1.0000   1.0000   1.0000   1.0000   1.0000   1.0000   1.0000
     1.0000   1.0000   0.0000   0.0000   0.0000   0.0000

          k =-0.5000 0.2564 0.0000 ( 59948 PWs)   bands (ev):

   -14.1758 -14.1757 -12.0222 -12.0222  -7.4553  -7.4553  -6.4538  -6.4538
    -3.6515  -3.6515   0.0465   0.0465   1.1641   1.1641

     occupation numbers 
     1.0000   1.0000   1.0000   1.0000   1.0000   1.0000   1.0000   1.0000
     1.0000   1.0000   0.0000   0.0000   0.0000   0.0000

          k =-0.5000 0.3419 0.0000 ( 59990 PWs)   bands (ev):

   -14.0438 -14.0438 -12.1219 -12.1219  -7.3662  -7.3662  -6.9894  -6.9894
    -3.6062  -3.6062  -0.0274  -0.0274   2.3083   2.3083

     occupation numbers 
     1.0000   1.0000   1.0000   1.0000   1.0000   1.0000   1.0000   1.0000
     1.0000   1.0000   0.0000   0.0000   0.0000   0.0000

     the Fermi energy is    -1.8539 ev

!    total energy              =     -62.26017731 Ry
     Harris-Foulkes estimate   =     -62.26017731 Ry
     estimated scf accuracy    <          1.7E-10 Ry

     The total energy is the sum of the following terms:

     one-electron contribution =    -438.16109864 Ry
     hartree contribution      =     222.10710616 Ry
     xc contribution           =     -23.58711397 Ry
     ewald contribution        =     177.38092913 Ry
     smearing contrib. (-TS)   =      -0.00000000 Ry

     convergence has been achieved in  10 iterations

     Forces acting on atoms (cartesian axes, Ry/au):

     atom    1 type  1   force =     0.00000000    0.00916553    0.01663138
     atom    2 type  1   force =     0.00000000   -0.00916231   -0.01663138
     atom    3 type  1   force =     0.00000000    0.00916231   -0.01663138
     atom    4 type  1   force =     0.00000000   -0.00916553    0.01663138
     The non-local contrib.  to forces
     atom    1 type  1   force =     0.00000000   -0.23927775    0.27666457
     atom    2 type  1   force =     0.00000000    0.23928009   -0.27665737
     atom    3 type  1   force =     0.00000000   -0.23928009   -0.27665737
     atom    4 type  1   force =     0.00000000    0.23927775    0.27666457
     The ionic contribution  to forces
     atom    1 type  1   force =    -0.00000000    1.39635482   -9.83417623
     atom    2 type  1   force =    -0.00000000   -1.39635602    9.83417623
     atom    3 type  1   force =     0.00000000    1.39635608    9.83417596
     atom    4 type  1   force =     0.00000000   -1.39635488   -9.83417596
     The local contribution  to forces
     atom    1 type  1   force =    -0.00000000   -1.15709697    9.58675209
     atom    2 type  1   force =    -0.00000000    1.15709444   -9.58679094
     atom    3 type  1   force =     0.00000000   -1.15709385   -9.58679077
     atom    4 type  1   force =     0.00000000    1.15709697    9.58675209
     The core correction contribution to forces
     atom    1 type  1   force =     0.00000000    0.00918677   -0.01262948
     atom    2 type  1   force =     0.00000000   -0.00918468    0.01262932
     atom    3 type  1   force =    -0.00000000    0.00918458    0.01262931
     atom    4 type  1   force =    -0.00000000   -0.00918677   -0.01262948
     The Hubbard contrib.    to forces
     atom    1 type  1   force =     0.00000000    0.00000000    0.00000000
     atom    2 type  1   force =     0.00000000    0.00000000    0.00000000
     atom    3 type  1   force =     0.00000000    0.00000000    0.00000000
     atom    4 type  1   force =     0.00000000    0.00000000    0.00000000
     The SCF correction term to forces
     atom    1 type  1   force =     0.00000000   -0.00000137    0.00002014
     atom    2 type  1   force =     0.00000000    0.00000413    0.00001129
     atom    3 type  1   force =    -0.00000000   -0.00000413    0.00001129
     atom    4 type  1   force =    -0.00000000    0.00000137    0.00002014

     Total force =     0.037978     Total SCF correction =     0.000033

     Writing output data file p.save
 
     init_run     :      2.47s CPU      1.49s WALL (       1 calls)
     electrons    :     52.17s CPU     28.19s WALL (       1 calls)
     forces       :      0.61s CPU      0.31s WALL (       1 calls)

     Called by init_run:
     wfcinit      :      1.56s CPU      0.85s WALL (       1 calls)
     wfcinit:atom :      0.01s CPU      0.02s WALL (      35 calls)
     wfcinit:wfcr :      1.38s CPU      0.74s WALL (      35 calls)
     potinit      :      0.20s CPU      0.10s WALL (       1 calls)

     Called by electrons:
     c_bands      :     45.05s CPU     23.67s WALL (      11 calls)
     sum_band     :      6.49s CPU      3.39s WALL (      11 calls)
     v_of_rho     :      0.06s CPU      0.04s WALL (      11 calls)
     v_h          :      0.03s CPU      0.02s WALL (      11 calls)
     v_xc         :      0.03s CPU      0.02s WALL (      12 calls)
     mix_rho      :      0.15s CPU      0.08s WALL (      11 calls)

     Called by c_bands:
     init_us_2    :      0.74s CPU      0.42s WALL (     840 calls)
     cegterg      :     43.61s CPU     22.85s WALL (     385 calls)

     Called by sum_band:

     Called by *egterg:
     h_psi        :     30.25s CPU     15.78s WALL (    1374 calls)
     g_psi        :      0.37s CPU      0.14s WALL (     954 calls)
     cdiaghg      :      7.77s CPU      3.96s WALL (    1304 calls)
     cegterg:over :      1.59s CPU      1.06s WALL (     954 calls)
     cegterg:upda :      2.10s CPU      1.14s WALL (     954 calls)
     cegterg:last :      0.50s CPU      0.31s WALL (     385 calls)
     cdiaghg:chol :      0.46s CPU      0.23s WALL (    1304 calls)
     cdiaghg:inve :      0.10s CPU      0.06s WALL (    1304 calls)
     cdiaghg:para :      0.65s CPU      0.29s WALL (    2608 calls)

     Called by h_psi:
     h_psi:pot    :     29.71s CPU     15.60s WALL (    1374 calls)
     h_psi:calbec :      1.04s CPU      0.56s WALL (    1374 calls)
     vloc_psi     :     28.35s CPU     14.76s WALL (    1374 calls)
     add_vuspsi   :      0.26s CPU      0.26s WALL (    1374 calls)

     General routines
     calbec       :      1.10s CPU      0.59s WALL (    1514 calls)
     fft          :      0.17s CPU      0.12s WALL (      49 calls)
     fftw         :     30.66s CPU     15.80s WALL (   33754 calls)
 
     Parallel routines
     fft_scatt_xy :      7.62s CPU      1.89s WALL (   33803 calls)
     fft_scatt_yz :     12.30s CPU      5.69s WALL (   33803 calls)
 
     PWSCF        :    58.96s CPU        34.19s WALL

 
   This run was terminated on:  21: 7: 3  27Jul2018            

=------------------------------------------------------------------------------=
   JOB DONE.
=------------------------------------------------------------------------------=
