
     Program PWSCF v.6.0 (svn rev. 13079) starts on 27Jul2018 at 10:32:51 

     This program is part of the open-source Quantum ESPRESSO suite
     for quantum simulation of materials; please cite
         "P. Giannozzi et al., J. Phys.:Condens. Matter 21 395502 (2009);
          URL http://www.quantum-espresso.org", 
     in publications or presentations arising from this work. More details at
     http://www.quantum-espresso.org/quote

     Serial version
     Waiting for input...
     Reading input from standard input
     Message from routine read_cards :
     DEPRECATED: no units specified in CELL_PARAMETERS card

     Current dimensions of program PWSCF are:
     Max number of different atomic species (ntypx) = 10
     Max number of k-points (npk) =  40000
     Max angular momentum in pseudopotentials (lmaxx) =  3
 
     G-vector sticks info
     --------------------
     sticks:   dense  smooth     PW     G-vecs:    dense   smooth      PW
     Sum       15793   15793   4149              1493013  1493013  200597
 


     bravais-lattice index     =            0
     lattice parameter (alat)  =       4.5000  a.u.
     unit-cell volume          =    3906.9844 (a.u.)^3
     number of atoms/cell      =            1
     number of atomic types    =            1
     number of electrons       =         4.00
     number of Kohn-Sham states=           10
     kinetic-energy cutoff     =     200.0000  Ry
     charge density cutoff     =     800.0000  Ry
     convergence threshold     =      5.0E-06
     mixing beta               =       0.7000
     number of iterations used =            4  local-TF  mixing
     Exchange-correlation      = PZ ( 1  1  0  0 0 0)

     celldm(1)=   4.500000  celldm(2)=   0.000000  celldm(3)=   0.000000
     celldm(4)=   0.000000  celldm(5)=   0.000000  celldm(6)=   0.000000

     crystal axes: (cart. coord. in units of alat)
               a(1) = (   3.500000   0.000000   0.000000 )  
               a(2) = (   0.000000   3.500000   0.000000 )  
               a(3) = (   0.000000   0.000000   3.500000 )  

     reciprocal axes: (cart. coord. in units 2 pi/alat)
               b(1) = (  0.285714  0.000000  0.000000 )  
               b(2) = (  0.000000  0.285714  0.000000 )  
               b(3) = (  0.000000  0.000000  0.285714 )  


     PseudoPot. # 1 for Ge read from file:
     ./Ge.UPF
     MD5 check sum: bcc154f2714f35b8dce9294413d7a7c0
     Pseudo is Norm-conserving + core correction, Zval =  4.0
     Generated using "atomic" code by A. Dal Corso  v.6.0 svn rev. 13079
     Using radial grid of 1207 points,  2 beta functions with: 
                l(1) =   0
                l(2) =   1

     atomic species   valence    mass     pseudopotential
        Ge             4.00    12.00000     Ge( 1.00)

     Starting magnetic structure 
     atomic species   magnetization
        Ge           0.010

     48 Sym. Ops., with inversion, found



   Cartesian axes

     site n.     atom                  positions (alat units)
         1           Ge  tau(   1) = (   1.7500000   1.7500000   1.7500000  )

     number of k points=     4  gaussian smearing, width (Ry)=  0.0030
                       cart. coord. in units 2pi/alat
        k(    1) = (   0.0000000   0.0000000   0.0000000), wk =   0.1250000
        k(    2) = (   0.0000000   0.0000000  -0.1428571), wk =   0.3750000
        k(    3) = (   0.0000000  -0.1428571  -0.1428571), wk =   0.3750000
        k(    4) = (  -0.1428571  -0.1428571  -0.1428571), wk =   0.1250000

     Dense  grid:  1493013 G-vectors     FFT dimensions: ( 141, 141, 141)

     Estimated max dynamical RAM per process >    1892.71Mb
     Generating pointlists ...
     new r_m :   0.4125 (alat units)  1.8563 (a.u.) for type    1
dfftp%nnr =2803221
    141    141    141    141    141    141
SIZE(dfftp%isind) =   19881
bg(1:3,1):   0.2857  0.0000  0.0000
bg(1:3,2):   0.0000  0.2857  0.0000
bg(1:3,3):   0.0000  0.0000  0.2857
at(1:3,1):   3.5000  0.0000  0.0000
at(1:3,2):   0.0000  3.5000  0.0000
at(1:3,3):   0.0000  0.0000  3.5000
nt =     1 na =    1
tau(:,na) =    1.75000   1.75000   1.75000
  k    rho_core(k)
       1   0.00000E+00
       2   0.00000E+00
       3   0.00000E+00
       4   0.00000E+00
       5   0.00000E+00
       6   0.00000E+00
       7   0.00000E+00
       8   0.00000E+00
       9   0.00000E+00
      10   0.00000E+00
      11   0.00000E+00
      12   0.00000E+00
      13   0.00000E+00
      14   0.00000E+00
      15   0.00000E+00
      16   0.00000E+00
      17   0.00000E+00
      18   0.00000E+00
      19   0.00000E+00
      20   0.00000E+00
      21   0.00000E+00
      22   0.00000E+00
      23   0.00000E+00
      24   0.00000E+00
      25   0.00000E+00
      26   0.00000E+00
      27   0.00000E+00
      28   0.00000E+00
      29   0.00000E+00
      30   0.00000E+00
      31   0.00000E+00
      32   0.00000E+00
      33   0.00000E+00
      34   0.00000E+00
      35   0.00000E+00
      36   0.00000E+00
      37   0.00000E+00
      38   0.00000E+00
      39   0.00000E+00
      40   0.00000E+00
      41   0.00000E+00
      42   0.00000E+00
      43   0.00000E+00
      44   0.00000E+00
      45   0.00000E+00
      46   0.00000E+00
      47   0.00000E+00
      48   0.00000E+00
      49   0.00000E+00
      50   0.00000E+00
      51   0.00000E+00
      52   0.00000E+00
      53   0.00000E+00
      54   0.00000E+00
      55   0.00000E+00
      56   0.00000E+00
      57   0.00000E+00
      58   0.00000E+00
      59   0.00000E+00
      60   0.00000E+00
      61   0.00000E+00
      62   0.00000E+00
      63   0.00000E+00
      64   0.00000E+00
      65   0.00000E+00
      66   0.00000E+00
      67   0.00000E+00
      68   0.00000E+00
      69   0.00000E+00
      70   0.00000E+00
      71   0.00000E+00
      72   0.00000E+00
      73   0.00000E+00
      74   0.00000E+00
      75   0.00000E+00
      76   0.00000E+00
      77   0.00000E+00
      78   0.00000E+00
      79   0.00000E+00
      80   0.00000E+00
      81   0.00000E+00
      82   0.00000E+00
      83   0.00000E+00
      84   0.00000E+00
      85   0.00000E+00
      86   0.00000E+00
      87   0.00000E+00
      88   0.00000E+00
      89   0.00000E+00
      90   0.00000E+00
      91   0.00000E+00
      92   0.00000E+00
      93   0.00000E+00
      94   0.00000E+00
      95   0.00000E+00
      96   0.00000E+00
      97   0.00000E+00
      98   0.00000E+00
      99   0.00000E+00
     100   0.00000E+00
     101   0.00000E+00
     102   0.00000E+00
     103   0.00000E+00
     104   0.00000E+00
     105   0.00000E+00
     106   0.00000E+00
     107   0.00000E+00
     108   0.00000E+00
     109   0.00000E+00
     110   0.00000E+00
     111   0.00000E+00
     112   0.00000E+00
     113   0.00000E+00
     114   0.00000E+00
     115   0.00000E+00
     116   0.00000E+00
     117   0.00000E+00
     118   0.00000E+00
     119   0.00000E+00
     120   0.00000E+00
     121   0.00000E+00
     122   0.00000E+00
     123   0.00000E+00
     124   0.00000E+00
     125   0.00000E+00
     126   0.00000E+00
     127   0.00000E+00
     128   0.00000E+00
     129   0.00000E+00
     130   0.00000E+00
     131   0.00000E+00
     132   0.00000E+00
     133   0.00000E+00
     134   0.00000E+00
     135   0.00000E+00
     136   0.00000E+00
     137   0.00000E+00
     138   0.00000E+00
     139   0.00000E+00
     140   0.00000E+00
     141   0.00000E+00
     142   0.00000E+00
     143   0.00000E+00
     144   0.00000E+00
     145   0.00000E+00
     146   0.00000E+00
     147   0.00000E+00
     148   0.00000E+00
     149   0.00000E+00
     150   0.00000E+00
     151   0.00000E+00
     152   0.00000E+00
     153   0.00000E+00
     154   0.00000E+00
     155   0.00000E+00
     156   0.00000E+00
     157   0.00000E+00
     158   0.00000E+00
     159   0.00000E+00
     160   0.00000E+00
     161   0.00000E+00
     162   0.00000E+00
     163   0.00000E+00
     164   0.00000E+00
     165   0.00000E+00
     166   0.00000E+00
     167   0.00000E+00
     168   0.00000E+00
     169   0.00000E+00
     170   0.00000E+00
     171   0.00000E+00
     172   0.00000E+00
     173   0.00000E+00
     174   0.00000E+00
     175   0.00000E+00
     176   0.00000E+00
     177   0.00000E+00
     178   0.00000E+00
     179   0.00000E+00
     180   0.00000E+00
     181   0.00000E+00
     182   0.00000E+00
     183   0.00000E+00
     184   0.00000E+00
     185   0.00000E+00
     186   0.00000E+00
     187   0.00000E+00
     188   0.00000E+00
     189   0.00000E+00
     190   0.00000E+00
     191   0.00000E+00
     192   0.00000E+00
     193   0.00000E+00
     194   0.00000E+00
     195   0.00000E+00
     196   0.00000E+00
     197   0.00000E+00
     198   0.00000E+00
     199   0.00000E+00
     200   0.00000E+00
     201   0.00000E+00
     202   0.00000E+00
     203   0.00000E+00
     204   0.00000E+00
     205   0.00000E+00
     206   0.00000E+00
     207   0.00000E+00
     208   0.00000E+00
     209   0.00000E+00
     210   0.00000E+00
     211   0.00000E+00
     212   0.00000E+00
     213   0.00000E+00
     214   0.00000E+00
     215   0.00000E+00
     216   0.00000E+00
     217   0.00000E+00
     218   0.00000E+00
     219   0.00000E+00
     220   0.00000E+00
     221   0.00000E+00
     222   0.00000E+00
     223   0.00000E+00
     224   0.00000E+00
     225   0.00000E+00
     226   0.00000E+00
     227   0.00000E+00
     228   0.00000E+00
     229   0.00000E+00
     230   0.00000E+00
     231   0.00000E+00
     232   0.00000E+00
     233   0.00000E+00
     234   0.00000E+00
     235   0.00000E+00
     236   0.00000E+00
     237   0.00000E+00
     238   0.00000E+00
     239   0.00000E+00
     240   0.00000E+00
     241   0.00000E+00
     242   0.00000E+00
     243   0.00000E+00
     244   0.00000E+00
     245   0.00000E+00
     246   0.00000E+00
     247   0.00000E+00
     248   0.00000E+00
     249   0.00000E+00
     250   0.00000E+00
     251   0.00000E+00
     252   0.00000E+00
     253   0.00000E+00
     254   0.00000E+00
     255   0.00000E+00
     256   0.00000E+00
     257   0.00000E+00
     258   0.00000E+00
     259   0.00000E+00
     260   0.00000E+00
     261   0.00000E+00
     262   0.00000E+00
     263   0.00000E+00
     264   0.00000E+00
     265   0.00000E+00
     266   0.00000E+00
     267   0.00000E+00
     268   0.00000E+00
     269   0.00000E+00
     270   0.00000E+00
     271   0.00000E+00
     272   0.00000E+00
     273   0.00000E+00
     274   0.00000E+00
     275   0.00000E+00
     276   0.00000E+00
     277   0.00000E+00
     278   0.00000E+00
     279   0.00000E+00
     280   0.00000E+00
     281   0.00000E+00
     282   0.00000E+00
     283   0.00000E+00
     284   0.00000E+00
     285   0.00000E+00
     286   0.00000E+00
     287   0.00000E+00
     288   0.00000E+00
     289   0.00000E+00
     290   0.00000E+00
     291   0.00000E+00
     292   0.00000E+00
     293   0.00000E+00
     294   0.00000E+00
     295   0.00000E+00
     296   0.00000E+00
     297   0.00000E+00
     298   0.00000E+00
     299   0.00000E+00
     300   0.00000E+00
  ------------ 
  k    averhoc
           1  1.591451198133399E-012
           2  1.686922854586270E-012
           3  1.984665709159267E-012
           4  2.520437364926948E-012
           5  3.360003959714958E-012
           6  4.604959941452673E-012
           7  6.405744547428066E-012
           8  8.977145730646149E-012
           9  1.263483562487696E-011
          10  1.782725367085211E-011
          11  2.517949559360985E-011
          12  3.557925336864907E-011
          13  5.032371653157324E-011
          14  7.119078484669825E-011
          15  1.007315194191814E-010
          16  1.426195427409952E-010
          17  2.019099272694271E-010
          18  2.860547114220709E-010
          19  4.052012432894768E-010
          20  5.744441260906522E-010
          21  8.142756647158842E-010
          22  1.154978298236157E-009
          23  1.638672119126264E-009
          24  2.325477972207002E-009
          25  3.302383928435855E-009
          26  4.691102119897329E-009
          27  6.665714853925826E-009
          28  9.475386119097711E-009
          29  1.347830108468949E-008
          30  1.917983260614264E-008
          31  2.730869590122000E-008
          32  3.890194397930649E-008
          33  5.544712640186674E-008
          34  7.907782502783215E-008
          35  1.128481629751384E-007
          36  1.611622051684589E-007
          37  2.303260603444205E-007
          38  3.293607574820896E-007
          39  4.714321591262684E-007
          40  6.753189918862231E-007
          41  9.683615365342295E-007
          42  1.389816532098762E-006
          43  1.996682371413653E-006
          44  2.872198989207002E-006
          45  4.136356730024867E-006
          46  5.965976595098072E-006
          47  8.617658038188776E-006
          48  1.246769249603106E-005
          49  1.807358567436165E-005
          50  2.625523007003105E-005
          51  3.823909781885936E-005
          52  5.585384325069742E-005
          53  8.185535399095619E-005
          54  1.204559251947537E-004
          55  1.781110235904005E-004
          56  2.649346183782009E-004
          57  3.967641821578339E-004
          58  5.990887171840269E-004
          59  9.132994013888539E-004
          60  1.391475381853571E-003
          61  2.030573973542227E-003
          62  2.800642775898113E-003
          63  3.665364154702381E-003
          64  4.584573444228850E-003
          65  5.514821988349439E-003
          66  6.412939942459898E-003
          67  7.236522503689969E-003
          68  7.947185126828508E-003
          69  8.511420578589239E-003
          70  8.902864207608397E-003
          71  9.103407400017808E-003
          72  9.103407400017808E-003
          73  8.902864207608397E-003
          74  8.511420578589239E-003
          75  7.947185126828508E-003
          76  7.236522503689969E-003
          77  6.412939942459898E-003
          78  5.514821988349439E-003
          79  4.584573444228850E-003
          80  3.665364154702381E-003
          81  2.800642775898113E-003
          82  2.030573973542233E-003
          83  1.391475381853571E-003
          84  9.132994013888539E-004
          85  5.990887171840253E-004
          86  3.967641821578318E-004
          87  2.649346183782021E-004
          88  1.781110235904005E-004
          89  1.204559251947537E-004
          90  8.185535399095601E-005
          91  5.585384325069764E-005
          92  3.823909781885956E-005
          93  2.625523007003105E-005
          94  1.807358567436165E-005
          95  1.246769249603101E-005
          96  8.617658038188805E-006
          97  5.965976595098083E-006
          98  4.136356730024867E-006
          99  2.872198989207002E-006
         100  1.996682371413648E-006
         101  1.389816532098766E-006
         102  9.683615365342314E-007
         103  6.753189918862231E-007
         104  4.714321591262679E-007
         105  3.293607574820885E-007
         106  2.303260603444210E-007
         107  1.611622051684591E-007
         108  1.128481629751384E-007
         109  7.907782502783201E-008
         110  5.544712640186660E-008
         111  3.890194397930657E-008
         112  2.730869590122000E-008
         113  1.917983260614264E-008
         114  1.347830108468949E-008
         115  9.475386119097682E-009
         116  6.665714853925826E-009
         117  4.691102119897329E-009
         118  3.302383928435855E-009
         119  2.325477972207002E-009
         120  1.638672119126262E-009
         121  1.154978298236157E-009
         122  8.142756647158842E-010
         123  5.744441260906522E-010
         124  4.052012432894768E-010
         125  2.860547114220718E-010
         126  2.019099272694271E-010
         127  1.426195427409952E-010
         128  1.007315194191814E-010
         129  7.119078484669815E-011
         130  5.032371653157340E-011
         131  3.557925336864907E-011
         132  2.517949559360985E-011
         133  1.782725367085211E-011
         134  1.263483562487691E-011
         135  8.977145730646164E-012
         136  6.405744547428066E-012
         137  4.604959941452673E-012
         138  3.360003959714958E-012
         139  2.520437364926941E-012
         140  1.984665709159268E-012
         141  1.686922854586270E-012
  ------------ 
  k    rhog_core(k)
       1   0.10048E-02   0.00000E+00
       2  -0.96980E-03  -0.12382E-19
       3  -0.96980E-03  -0.81668E-20
       4  -0.96980E-03  -0.11239E-19
       5  -0.96980E-03  -0.14076E-19
       6  -0.96980E-03  -0.92860E-20
       7  -0.96980E-03  -0.10897E-19
       8   0.93608E-03   0.15382E-19
       9   0.93608E-03   0.12044E-19
      10   0.93608E-03   0.24872E-19
      11   0.93608E-03   0.23599E-19
      12   0.93608E-03   0.79041E-20
      13   0.93608E-03   0.14828E-19
      14   0.93608E-03   0.12434E-19
      15   0.93608E-03   0.94671E-20
      16   0.93608E-03   0.14424E-19
      17   0.93608E-03   0.11052E-19
      18   0.93608E-03   0.86821E-20
      19   0.93608E-03   0.24404E-19
      20  -0.90356E-03  -0.33155E-19
      21  -0.90356E-03  -0.25809E-19
      22  -0.90356E-03  -0.34226E-19
      23  -0.90356E-03  -0.29819E-19
      24  -0.90356E-03  -0.30789E-19
      25  -0.90356E-03  -0.21142E-19
      26  -0.90356E-03  -0.33338E-19
      27  -0.90356E-03  -0.33806E-19
      28   0.87219E-03   0.42575E-19
      29   0.87219E-03   0.45568E-19
      30   0.87219E-03   0.35578E-19
      31   0.87219E-03  -0.20902E-19
      32   0.87219E-03  -0.20276E-19
      33   0.87219E-03  -0.18800E-19
      34  -0.84191E-03  -0.52063E-19
      35  -0.84191E-03  -0.44473E-19
      36  -0.84191E-03  -0.50353E-19
      37  -0.84191E-03  -0.49193E-19
      38  -0.84191E-03  -0.63261E-19
      39  -0.84191E-03  -0.58412E-19
      40  -0.84191E-03   0.66515E-20
      41  -0.84191E-03   0.11009E-19
      42  -0.84191E-03  -0.62275E-19
      43  -0.84191E-03  -0.50571E-19
      44  -0.84191E-03  -0.54919E-19
      45  -0.84191E-03   0.64485E-20
      46  -0.84191E-03  -0.42214E-19
      47  -0.84191E-03   0.10719E-19
      48  -0.84191E-03  -0.34763E-20
      49  -0.84191E-03   0.72882E-20
      50  -0.84191E-03  -0.62118E-19
      51  -0.84191E-03  -0.57225E-19
      52  -0.84191E-03   0.78457E-20
      53  -0.84191E-03   0.13125E-19
      54  -0.84191E-03   0.46727E-20
      55  -0.84191E-03  -0.27835E-20
      56  -0.84191E-03   0.89802E-20
      57  -0.84191E-03   0.11209E-19
      58   0.81269E-03   0.47438E-19
      59   0.81269E-03   0.57441E-19
      60   0.81269E-03   0.47054E-19
      61   0.81269E-03   0.51866E-19
      62   0.81269E-03   0.47449E-19
      63   0.81269E-03   0.70147E-19
      64   0.81269E-03   0.41582E-19
      65   0.81269E-03  -0.10781E-19
      66   0.81269E-03   0.63734E-19
      67   0.81269E-03  -0.29366E-21
      68   0.81269E-03   0.64357E-20
      69   0.81269E-03  -0.64481E-20
      70   0.81269E-03   0.63350E-19
      71   0.81269E-03   0.68503E-19
      72   0.81269E-03   0.41761E-19
      73   0.81269E-03  -0.10532E-19
      74   0.81269E-03   0.44170E-19
      75   0.81269E-03   0.69070E-20
      76   0.81269E-03   0.56564E-20
      77   0.81269E-03  -0.46371E-20
      78   0.81269E-03   0.57323E-20
      79   0.81269E-03   0.56727E-20
      80   0.81269E-03   0.64095E-20
      81   0.81269E-03  -0.38908E-20
      82   0.75724E-03   0.80454E-19
      83   0.75724E-03   0.65516E-19
      84   0.75724E-03   0.17141E-19
      85   0.75724E-03   0.20782E-19
      86   0.75724E-03   0.81775E-19
      87   0.75724E-03   0.24112E-19
      88   0.75724E-03   0.44817E-19
      89   0.75724E-03  -0.38918E-19
      90   0.75724E-03   0.27428E-19
      91   0.75724E-03   0.43423E-19
      92   0.75724E-03  -0.42474E-19
      93   0.75724E-03  -0.35565E-19
      94  -0.73093E-03  -0.44979E-20
      95  -0.73093E-03  -0.91728E-19
      96  -0.73093E-03  -0.87201E-19
      97  -0.73093E-03  -0.92101E-19
      98  -0.73093E-03  -0.32058E-19
      99  -0.73093E-03  -0.88945E-19
     100  -0.73093E-03  -0.28920E-19
 1492913   0.34984E-08  -0.12692E-20
 1492914   0.34984E-08   0.96279E-21
 1492915   0.34984E-08  -0.56029E-21
 1492916   0.34984E-08  -0.20424E-21
 1492917   0.34984E-08  -0.45354E-21
 1492918  -0.27466E-09  -0.38312E-21
 1492919  -0.27466E-09  -0.22638E-22
 1492920  -0.27466E-09   0.10670E-20
 1492921  -0.27466E-09  -0.10560E-20
 1492922  -0.27466E-09   0.12130E-20
 1492923  -0.27466E-09  -0.93156E-21
 1492924  -0.27466E-09  -0.16410E-20
 1492925  -0.27466E-09  -0.12858E-20
 1492926  -0.79821E-08   0.28065E-20
 1492927  -0.79821E-08   0.24234E-20
 1492928  -0.79821E-08   0.30252E-20
 1492929  -0.79821E-08   0.26741E-20
 1492930  -0.79821E-08   0.25275E-20
 1492931  -0.79821E-08   0.21663E-20
 1492932  -0.79821E-08   0.20857E-20
 1492933  -0.79821E-08   0.16816E-20
 1492934   0.24953E-10  -0.67301E-21
 1492935   0.24953E-10   0.14740E-20
 1492936   0.24953E-10  -0.35652E-21
 1492937   0.24953E-10  -0.33818E-21
 1492938   0.24953E-10   0.66497E-21
 1492939   0.24953E-10   0.69397E-21
 1492940   0.24953E-10  -0.13767E-20
 1492941   0.24953E-10   0.80561E-21
 1492942   0.24953E-10  -0.14460E-20
 1492943   0.24953E-10   0.52396E-21
 1492944  -0.27466E-09  -0.36419E-20
 1492945  -0.27466E-09  -0.33052E-20
 1492946   0.34984E-08  -0.22120E-20
 1492947   0.34984E-08  -0.22092E-20
 1492948   0.34984E-08  -0.15849E-20
 1492949   0.34984E-08  -0.10382E-20
 1492950  -0.27466E-09  -0.31204E-20
 1492951  -0.27466E-09  -0.22505E-20
 1492952   0.24953E-10  -0.80467E-21
 1492953   0.24953E-10  -0.10269E-20
 1492954   0.24953E-10  -0.62612E-22
 1492955   0.24953E-10  -0.25597E-21
 1492956  -0.27466E-09  -0.26895E-20
 1492957  -0.27466E-09  -0.18302E-20
 1492958   0.34984E-08  -0.22884E-20
 1492959   0.34984E-08  -0.17865E-20
 1492960   0.34984E-08  -0.86041E-21
 1492961   0.34984E-08  -0.91466E-21
 1492962  -0.27466E-09  -0.23905E-20
 1492963  -0.27466E-09  -0.20602E-20
 1492964   0.24953E-10  -0.19657E-20
 1492965   0.24953E-10   0.37391E-22
 1492966  -0.47497E-08   0.31034E-21
 1492967  -0.47497E-08   0.97986E-22
 1492968  -0.47497E-08   0.14019E-20
 1492969  -0.47497E-08   0.35501E-21
 1492970  -0.47497E-08   0.68867E-21
 1492971  -0.47497E-08  -0.33999E-21
 1492972  -0.47497E-08  -0.50607E-21
 1492973  -0.47497E-08  -0.69565E-21
 1492974  -0.29771E-08  -0.93972E-21
 1492975  -0.29771E-08  -0.11231E-20
 1492976  -0.82909E-09  -0.61114E-21
 1492977  -0.82909E-09  -0.39206E-21
 1492978  -0.82909E-09  -0.76729E-21
 1492979  -0.82909E-09  -0.57296E-21
 1492980  -0.29771E-08   0.49616E-23
 1492981  -0.29771E-08   0.71215E-21
 1492982  -0.29771E-08  -0.11123E-20
 1492983  -0.29771E-08  -0.44416E-21
 1492984  -0.82909E-09  -0.77678E-21
 1492985  -0.82909E-09  -0.57526E-21
 1492986  -0.82909E-09  -0.64391E-21
 1492987  -0.82909E-09  -0.41441E-21
 1492988  -0.29771E-08   0.44491E-21
 1492989  -0.29771E-08   0.22342E-21
 1492990   0.42022E-08  -0.32131E-21
 1492991   0.42022E-08  -0.25339E-21
 1492992   0.42022E-08   0.11989E-21
 1492993   0.42022E-08   0.92001E-21
 1492994   0.42022E-08   0.37883E-21
 1492995   0.42022E-08   0.11565E-20
 1492996   0.42022E-08   0.55034E-21
 1492997   0.42022E-08   0.59528E-21
 1492998  -0.16167E-07   0.11123E-20
 1492999  -0.16167E-07   0.10913E-20
 1493000  -0.16191E-07   0.97507E-21
 1493001  -0.16191E-07   0.10008E-20
 1493002  -0.16191E-07   0.10516E-20
 1493003  -0.16191E-07   0.11213E-20
 1493004  -0.16167E-07   0.14718E-20
 1493005  -0.16167E-07   0.16446E-20
 1493006  -0.16167E-07   0.14631E-20
 1493007  -0.16167E-07   0.16066E-20
 1493008  -0.16191E-07   0.11007E-20
 1493009  -0.16191E-07   0.11528E-20
 1493010  -0.16191E-07   0.10324E-20
 1493011  -0.16191E-07   0.10419E-20
 1493012  -0.16167E-07   0.10325E-20
 1493013  -0.16167E-07   0.97898E-21
  ------------ 

     Initial potential from superposition of free atoms

     starting charge    3.99943, renormalised to    4.00000

     negative rho (up, down):  1.937E-05 1.898E-05
     Starting wfc are    4 randomized atomic wfcs +    6 random wfc

     total cpu time spent up to now is       95.0 secs

     per-process dynamical memory:   995.8 Mb

     Self-consistent Calculation

     iteration #  1     ecut=   200.00 Ry     beta=0.70
     Davidson diagonalization with overlap
     ethr =  1.00E-02,  avg # of iterations = 10.4

     Threshold (ethr) on eigenvalues was too large:
     Diagonalizing with lowered threshold

     Davidson diagonalization with overlap
     c_bands:  1 eigenvalues not converged
     ethr =  2.20E-05,  avg # of iterations = 15.9

     negative rho (up, down):  2.539E-05 6.779E-05

     total cpu time spent up to now is      694.8 secs

     total energy              =     -11.82800217 Ry
     Harris-Foulkes estimate   =     -11.82419252 Ry
     estimated scf accuracy    <       0.00085682 Ry

     total magnetization       =     0.70 Bohr mag/cell
     absolute magnetization    =     0.70 Bohr mag/cell

     iteration #  2     ecut=   200.00 Ry     beta=0.70
     Davidson diagonalization with overlap
     ethr =  2.14E-05,  avg # of iterations =  4.8

     negative rho (up, down):  7.217E-05 8.171E-05

     total cpu time spent up to now is      917.7 secs

     total energy              =     -11.82094240 Ry
     Harris-Foulkes estimate   =     -11.83861458 Ry
     estimated scf accuracy    <       0.00304225 Ry

     total magnetization       =     2.00 Bohr mag/cell
     absolute magnetization    =     2.00 Bohr mag/cell

     iteration #  3     ecut=   200.00 Ry     beta=0.70
     Davidson diagonalization with overlap
     ethr =  2.14E-05,  avg # of iterations =  1.2

     negative rho (up, down):  8.237E-05 1.273E-04

     total cpu time spent up to now is     1225.2 secs

     total energy              =     -11.82257235 Ry
     Harris-Foulkes estimate   =     -11.82384314 Ry
     estimated scf accuracy    <       0.00014997 Ry

     total magnetization       =    -0.10 Bohr mag/cell
     absolute magnetization    =     0.10 Bohr mag/cell

     iteration #  4     ecut=   200.00 Ry     beta=0.70
     Davidson diagonalization with overlap
     ethr =  3.75E-06,  avg # of iterations =  3.8

     negative rho (up, down):  7.404E-05 1.335E-04

     total cpu time spent up to now is     1445.0 secs

     total energy              =     -11.83503613 Ry
     Harris-Foulkes estimate   =     -11.83101800 Ry
     estimated scf accuracy    <       0.00402185 Ry

     total magnetization       =     2.00 Bohr mag/cell
     absolute magnetization    =     2.00 Bohr mag/cell

     iteration #  5     ecut=   200.00 Ry     beta=0.70
     Davidson diagonalization with overlap
     ethr =  3.75E-06,  avg # of iterations =  1.0

     negative rho (up, down):  2.932E-05 1.258E-04

     total cpu time spent up to now is     1649.6 secs

     total energy              =     -11.85049118 Ry
     Harris-Foulkes estimate   =     -11.83504159 Ry
     estimated scf accuracy    <       0.00349742 Ry

     total magnetization       =     2.00 Bohr mag/cell
     absolute magnetization    =     2.00 Bohr mag/cell

     iteration #  6     ecut=   200.00 Ry     beta=0.70
     Davidson diagonalization with overlap

     Maximum CPU time exceeded

     max_seconds     =    1700.00
     elapsed seconds =    1711.93
     Calculation stopped in k-point loop, point #     5
     Calculation stopped in scf loop at iteration #     5

     Writing output data file Ge.save
 
     init_run     :     51.61s CPU     93.81s WALL (       1 calls)
     electrons    :   1445.60s CPU   1619.21s WALL (       1 calls)

     Called by init_run:
     wfcinit      :     30.67s CPU     31.20s WALL (       1 calls)
     potinit      :      1.42s CPU      1.66s WALL (       1 calls)

     Called by electrons:
     c_bands      :    788.43s CPU    834.85s WALL (       7 calls)
     sum_band     :    113.62s CPU    237.62s WALL (       6 calls)
     v_of_rho     :      3.33s CPU      3.60s WALL (       6 calls)
     mix_rho      :    540.53s CPU    543.83s WALL (       6 calls)

     Called by c_bands:
     init_us_2    :      1.83s CPU      1.99s WALL (     109 calls)
     cegterg      :    786.06s CPU    792.84s WALL (      53 calls)

     Called by sum_band:

     Called by *egterg:
     h_psi        :    792.05s CPU    792.16s WALL (     374 calls)
     g_psi        :      1.71s CPU      1.69s WALL (     313 calls)
     cdiaghg      :      0.08s CPU      0.21s WALL (     358 calls)

     Called by h_psi:
     h_psi:pot    :    790.38s CPU    790.42s WALL (     374 calls)
     h_psi:calbec :      1.73s CPU      1.80s WALL (     374 calls)
     vloc_psi     :    787.52s CPU    787.52s WALL (     374 calls)
     add_vuspsi   :      1.12s CPU      1.10s WALL (     374 calls)

     General routines
     calbec       :      1.73s CPU      1.80s WALL (     374 calls)
     fft          :      8.29s CPU      8.38s WALL (      46 calls)
     ffts         :    381.49s CPU    381.44s WALL (    2119 calls)
     fftw         :    847.96s CPU    847.80s WALL (    4718 calls)
     davcio       :      0.01s CPU      1.10s WALL (      18 calls)
 
 
     PWSCF        : 24m57.40s CPU    28m34.88s WALL

 
   This run was terminated on:  11: 1:26  27Jul2018            

=------------------------------------------------------------------------------=
   JOB DONE.
=------------------------------------------------------------------------------=
