
     Program PWSCF v.6.0 (svn rev. 13079) starts on 26Jul2018 at 20:29:14 

     This program is part of the open-source Quantum ESPRESSO suite
     for quantum simulation of materials; please cite
         "P. Giannozzi et al., J. Phys.:Condens. Matter 21 395502 (2009);
          URL http://www.quantum-espresso.org", 
     in publications or presentations arising from this work. More details at
     http://www.quantum-espresso.org/quote

     Serial version
     Waiting for input...
     Reading input from standard input
     Message from routine read_cards :
     DEPRECATED: no units specified in CELL_PARAMETERS card

     Current dimensions of program PWSCF are:
     Max number of different atomic species (ntypx) = 10
     Max number of k-points (npk) =  40000
     Max angular momentum in pseudopotentials (lmaxx) =  3
 
     G-vector sticks info
     --------------------
     sticks:   dense  smooth     PW     G-vecs:    dense   smooth      PW
     Sum       11873   11873   3125               970115   970115  131827
 


     bravais-lattice index     =            0
     lattice parameter (alat)  =       4.5000  a.u.
     unit-cell volume          =    3906.9844 (a.u.)^3
     number of atoms/cell      =            1
     number of atomic types    =            1
     number of electrons       =         5.00
     number of Kohn-Sham states=           25
     kinetic-energy cutoff     =     150.0000  Ry
     charge density cutoff     =     600.0000  Ry
     convergence threshold     =      5.0E-06
     mixing beta               =       0.7000
     number of iterations used =            4  local-TF  mixing
     Exchange-correlation      = PZ ( 1  1  0  0 0 0)

     celldm(1)=   4.500000  celldm(2)=   0.000000  celldm(3)=   0.000000
     celldm(4)=   0.000000  celldm(5)=   0.000000  celldm(6)=   0.000000

     crystal axes: (cart. coord. in units of alat)
               a(1) = (   3.500000   0.000000   0.000000 )  
               a(2) = (   0.000000   3.500000   0.000000 )  
               a(3) = (   0.000000   0.000000   3.500000 )  

     reciprocal axes: (cart. coord. in units 2 pi/alat)
               b(1) = (  0.285714  0.000000  0.000000 )  
               b(2) = (  0.000000  0.285714  0.000000 )  
               b(3) = (  0.000000  0.000000  0.285714 )  


     PseudoPot. # 1 for  P read from file:
     ./P.UPF
     MD5 check sum: 9e9c0d5cfb0fc50679b9fd28a02c9e05
     Pseudo is Norm-conserving + core correction, Zval =  5.0
     Generated using "atomic" code by A. Dal Corso  v.6.0 svn rev. 13079
     Using radial grid of 1147 points,  2 beta functions with: 
                l(1) =   0
                l(2) =   1

     atomic species   valence    mass     pseudopotential
        P              5.00    12.00000      P( 1.00)

     Starting magnetic structure 
     atomic species   magnetization
        P            0.010

     48 Sym. Ops., with inversion, found



   Cartesian axes

     site n.     atom                  positions (alat units)
         1           P   tau(   1) = (   1.7500000   1.7500000   1.7500000  )

     number of k points=     4  gaussian smearing, width (Ry)=  0.0030
                       cart. coord. in units 2pi/alat
        k(    1) = (   0.0000000   0.0000000   0.0000000), wk =   0.1250000
        k(    2) = (   0.0000000   0.0000000  -0.1428571), wk =   0.3750000
        k(    3) = (   0.0000000  -0.1428571  -0.1428571), wk =   0.3750000
        k(    4) = (  -0.1428571  -0.1428571  -0.1428571), wk =   0.1250000

     Dense  grid:   970115 G-vectors     FFT dimensions: ( 123, 123, 123)

     Estimated max dynamical RAM per process >    1483.95Mb
     Generating pointlists ...
     new r_m :   0.4125 (alat units)  1.8563 (a.u.) for type    1
dfftp%nnr =1860867
    123    123    123    123    123    123
SIZE(dfftp%isind) =   15129
bg(1:3,1):   0.2857  0.0000  0.0000
bg(1:3,2):   0.0000  0.2857  0.0000
bg(1:3,3):   0.0000  0.0000  0.2857
at(1:3,1):   3.5000  0.0000  0.0000
at(1:3,2):   0.0000  3.5000  0.0000
at(1:3,3):   0.0000  0.0000  3.5000
nt =     1 na =    1
tau(:,na) =    1.75000   1.75000   1.75000
  k    rho_core(k)
       1   0.00000E+00
       2   0.00000E+00
       3   0.00000E+00
       4   0.00000E+00
       5   0.00000E+00
       6   0.00000E+00
       7   0.00000E+00
       8   0.00000E+00
       9   0.00000E+00
      10   0.00000E+00
      11   0.00000E+00
      12   0.00000E+00
      13   0.00000E+00
      14   0.00000E+00
      15   0.00000E+00
      16   0.00000E+00
      17   0.00000E+00
      18   0.00000E+00
      19   0.00000E+00
      20   0.00000E+00
      21   0.00000E+00
      22   0.00000E+00
      23   0.00000E+00
      24   0.00000E+00
      25   0.00000E+00
      26   0.00000E+00
      27   0.00000E+00
      28   0.00000E+00
      29   0.00000E+00
      30   0.00000E+00
      31   0.00000E+00
      32   0.00000E+00
      33   0.00000E+00
      34   0.00000E+00
      35   0.00000E+00
      36   0.00000E+00
      37   0.00000E+00
      38   0.00000E+00
      39   0.00000E+00
      40   0.00000E+00
      41   0.00000E+00
      42   0.00000E+00
      43   0.00000E+00
      44   0.00000E+00
      45   0.00000E+00
      46   0.00000E+00
      47   0.00000E+00
      48   0.00000E+00
      49   0.00000E+00
      50   0.00000E+00
      51   0.00000E+00
      52   0.00000E+00
      53   0.00000E+00
      54   0.00000E+00
      55   0.00000E+00
      56   0.00000E+00
      57   0.00000E+00
      58   0.00000E+00
      59   0.00000E+00
      60   0.00000E+00
      61   0.00000E+00
      62   0.00000E+00
      63   0.00000E+00
      64   0.00000E+00
      65   0.00000E+00
      66   0.00000E+00
      67   0.00000E+00
      68   0.00000E+00
      69   0.00000E+00
      70   0.00000E+00
      71   0.00000E+00
      72   0.00000E+00
      73   0.00000E+00
      74   0.00000E+00
      75   0.00000E+00
      76   0.00000E+00
      77   0.00000E+00
      78   0.00000E+00
      79   0.00000E+00
      80   0.00000E+00
      81   0.00000E+00
      82   0.00000E+00
      83   0.00000E+00
      84   0.00000E+00
      85   0.00000E+00
      86   0.00000E+00
      87   0.00000E+00
      88   0.00000E+00
      89   0.00000E+00
      90   0.00000E+00
      91   0.00000E+00
      92   0.00000E+00
      93   0.00000E+00
      94   0.00000E+00
      95   0.00000E+00
      96   0.00000E+00
      97   0.00000E+00
      98   0.00000E+00
      99   0.00000E+00
     100   0.00000E+00
     101   0.00000E+00
     102   0.00000E+00
     103   0.00000E+00
     104   0.00000E+00
     105   0.00000E+00
     106   0.00000E+00
     107   0.00000E+00
     108   0.00000E+00
     109   0.00000E+00
     110   0.00000E+00
     111   0.00000E+00
     112   0.00000E+00
     113   0.00000E+00
     114   0.00000E+00
     115   0.00000E+00
     116   0.00000E+00
     117   0.00000E+00
     118   0.00000E+00
     119   0.00000E+00
     120   0.00000E+00
     121   0.00000E+00
     122   0.00000E+00
     123   0.00000E+00
     124   0.00000E+00
     125   0.00000E+00
     126   0.00000E+00
     127   0.00000E+00
     128   0.00000E+00
     129   0.00000E+00
     130   0.00000E+00
     131   0.00000E+00
     132   0.00000E+00
     133   0.00000E+00
     134   0.00000E+00
     135   0.00000E+00
     136   0.00000E+00
     137   0.00000E+00
     138   0.00000E+00
     139   0.00000E+00
     140   0.00000E+00
     141   0.00000E+00
     142   0.00000E+00
     143   0.00000E+00
     144   0.00000E+00
     145   0.00000E+00
     146   0.00000E+00
     147   0.00000E+00
     148   0.00000E+00
     149   0.00000E+00
     150   0.00000E+00
     151   0.00000E+00
     152   0.00000E+00
     153   0.00000E+00
     154   0.00000E+00
     155   0.00000E+00
     156   0.00000E+00
     157   0.00000E+00
     158   0.00000E+00
     159   0.00000E+00
     160   0.00000E+00
     161   0.00000E+00
     162   0.00000E+00
     163   0.00000E+00
     164   0.00000E+00
     165   0.00000E+00
     166   0.00000E+00
     167   0.00000E+00
     168   0.00000E+00
     169   0.00000E+00
     170   0.00000E+00
     171   0.00000E+00
     172   0.00000E+00
     173   0.00000E+00
     174   0.00000E+00
     175   0.00000E+00
     176   0.00000E+00
     177   0.00000E+00
     178   0.00000E+00
     179   0.00000E+00
     180   0.00000E+00
     181   0.00000E+00
     182   0.00000E+00
     183   0.00000E+00
     184   0.00000E+00
     185   0.00000E+00
     186   0.00000E+00
     187   0.00000E+00
     188   0.00000E+00
     189   0.00000E+00
     190   0.00000E+00
     191   0.00000E+00
     192   0.00000E+00
     193   0.00000E+00
     194   0.00000E+00
     195   0.00000E+00
     196   0.00000E+00
     197   0.00000E+00
     198   0.00000E+00
     199   0.00000E+00
     200   0.00000E+00
     201   0.00000E+00
     202   0.00000E+00
     203   0.00000E+00
     204   0.00000E+00
     205   0.00000E+00
     206   0.00000E+00
     207   0.00000E+00
     208   0.00000E+00
     209   0.00000E+00
     210   0.00000E+00
     211   0.00000E+00
     212   0.00000E+00
     213   0.00000E+00
     214   0.00000E+00
     215   0.00000E+00
     216   0.00000E+00
     217   0.00000E+00
     218   0.00000E+00
     219   0.00000E+00
     220   0.00000E+00
     221   0.00000E+00
     222   0.00000E+00
     223   0.00000E+00
     224   0.00000E+00
     225   0.00000E+00
     226   0.00000E+00
     227   0.00000E+00
     228   0.00000E+00
     229   0.00000E+00
     230   0.00000E+00
     231   0.00000E+00
     232   0.00000E+00
     233   0.00000E+00
     234   0.00000E+00
     235   0.00000E+00
     236   0.00000E+00
     237   0.00000E+00
     238   0.00000E+00
     239   0.00000E+00
     240   0.00000E+00
     241   0.00000E+00
     242   0.00000E+00
     243   0.00000E+00
     244   0.00000E+00
     245   0.00000E+00
     246   0.00000E+00
     247   0.00000E+00
     248   0.00000E+00
     249   0.00000E+00
     250   0.00000E+00
     251   0.00000E+00
     252   0.00000E+00
     253   0.00000E+00
     254   0.00000E+00
     255   0.00000E+00
     256   0.00000E+00
     257   0.00000E+00
     258   0.00000E+00
     259   0.00000E+00
     260   0.00000E+00
     261   0.00000E+00
     262   0.00000E+00
     263   0.00000E+00
     264   0.00000E+00
     265   0.00000E+00
     266   0.00000E+00
     267   0.00000E+00
     268   0.00000E+00
     269   0.00000E+00
     270   0.00000E+00
     271   0.00000E+00
     272   0.00000E+00
     273   0.00000E+00
     274   0.00000E+00
     275   0.00000E+00
     276   0.00000E+00
     277   0.00000E+00
     278   0.00000E+00
     279   0.00000E+00
     280   0.00000E+00
     281   0.00000E+00
     282   0.00000E+00
     283   0.00000E+00
     284   0.00000E+00
     285   0.00000E+00
     286   0.00000E+00
     287   0.00000E+00
     288   0.00000E+00
     289   0.00000E+00
     290   0.00000E+00
     291   0.00000E+00
     292   0.00000E+00
     293   0.00000E+00
     294   0.00000E+00
     295   0.00000E+00
     296   0.00000E+00
     297   0.00000E+00
     298   0.00000E+00
     299   0.00000E+00
     300   0.00000E+00
  ------------ 
  k    averhoc
           1  2.251710598554987E-022
           2  3.010011983740876E-022
           3  5.763517150314038E-022
           4  1.229641353152886E-021
           5  2.701722443437617E-021
           6  5.935460876308231E-021
           7  1.309986414539012E-020
           8  2.889346400414966E-020
           9  6.367349620860778E-020
          10  1.405432833445633E-019
          11  3.098756134547526E-019
          12  6.835500582588955E-019
          13  1.511062407365527E-018
          14  3.330643153078810E-018
          15  7.366136809478736E-018
          16  1.627835274537541E-017
          17  3.593747066454505E-017
          18  7.941665445035535E-017
          19  1.758264187415429E-016
          20  3.891663832283098E-016
          21  8.612530324979843E-016
          22  1.906880236929978E-015
          23  4.224860423575582E-015
          24  9.361981977100162E-015
          25  2.075455534977001E-014
          26  4.601387112525640E-014
          27  1.020858942358236E-013
          28  2.267616476795567E-013
          29  5.039104313384690E-013
          30  1.119621615725499E-012
          31  2.491944296014440E-012
          32  5.544887067485258E-012
          33  1.235546750021183E-011
          34  2.756674312464877E-011
          35  6.147031654440442E-011
          36  1.373981310532127E-010
          37  3.071007708814390E-010
          38  6.870496377716523E-010
          39  1.539153513884594E-009
          40  3.453575446496944E-009
          41  7.757044531442661E-009
          42  1.743554885469246E-008
          43  3.924393751210632E-008
          44  8.848207244161032E-008
          45  1.997252789079934E-007
          46  4.513553707235229E-007
          47  1.021004402415176E-006
          48  2.311805458562309E-006
          49  5.234055750287416E-006
          50  1.185890911901249E-005
          51  2.683978196600483E-005
          52  6.065836716352668E-005
          53  1.366566303875038E-004
          54  3.063535930766716E-004
          55  6.814664815432849E-004
          56  1.492430502562794E-003
          57  3.093892148420376E-003
          58  5.766720114496373E-003
          59  9.446358668768411E-003
          60  1.357538311929839E-002
          61  1.720768364548052E-002
          62  1.934439580014836E-002
          63  1.934439580014836E-002
          64  1.720768364548052E-002
          65  1.357538311929839E-002
          66  9.446358668768411E-003
          67  5.766720114496373E-003
          68  3.093892148420376E-003
          69  1.492430502562794E-003
          70  6.814664815432849E-004
          71  3.063535930766716E-004
          72  1.366566303875028E-004
          73  6.065836716352668E-005
          74  2.683978196600483E-005
          75  1.185890911901256E-005
          76  5.234055750287383E-006
          77  2.311805458562309E-006
          78  1.021004402415181E-006
          79  4.513553707235191E-007
          80  1.997252789079934E-007
          81  8.848207244161032E-008
          82  3.924393751210651E-008
          83  1.743554885469236E-008
          84  7.757044531442661E-009
          85  3.453575446496944E-009
          86  1.539153513884603E-009
          87  6.870496377716523E-010
          88  3.071007708814390E-010
          89  1.373981310532129E-010
          90  6.147031654440397E-011
          91  2.756674312464877E-011
          92  1.235546750021186E-011
          93  5.544887067485289E-012
          94  2.491944296014428E-012
          95  1.119621615725499E-012
          96  5.039104313384706E-013
          97  2.267616476795554E-013
          98  1.020858942358236E-013
          99  4.601387112525640E-014
         100  2.075455534977001E-014
         101  9.361981977100162E-015
         102  4.224860423575582E-015
         103  1.906880236929978E-015
         104  8.612530324979903E-016
         105  3.891663832283098E-016
         106  1.758264187415429E-016
         107  7.941665445035535E-017
         108  3.593747066454479E-017
         109  1.627835274537541E-017
         110  7.366136809478736E-018
         111  3.330643153078824E-018
         112  1.511062407365520E-018
         113  6.835500582588955E-019
         114  3.098756134547526E-019
         115  1.405432833445623E-019
         116  6.367349620860778E-020
         117  2.889346400414966E-020
         118  1.309986414539018E-020
         119  5.935460876308188E-021
         120  2.701722443437617E-021
         121  1.229641353152886E-021
         122  5.763517150314089E-022
         123  3.010011983740864E-022
  ------------ 
  k    rhog_core(k)
       1   0.11571E-02   0.00000E+00
       2  -0.11443E-02  -0.36421E-19
       3  -0.11443E-02  -0.47178E-19
       4  -0.11443E-02   0.42805E-20
       5  -0.11443E-02  -0.76723E-19
       6  -0.11443E-02  -0.80703E-19
       7  -0.11443E-02  -0.84307E-19
       8   0.11317E-02   0.67715E-19
       9   0.11317E-02   0.66663E-19
      10   0.11317E-02   0.12311E-18
      11   0.11317E-02   0.11765E-18
      12   0.11317E-02   0.93677E-19
      13   0.11317E-02   0.12717E-18
      14   0.11317E-02   0.13586E-18
      15   0.11317E-02   0.15813E-18
      16   0.11317E-02   0.13056E-18
      17   0.11317E-02   0.13715E-18
      18   0.11317E-02   0.16700E-18
      19   0.11317E-02   0.16940E-18
      20  -0.11193E-02  -0.11145E-18
      21  -0.11193E-02  -0.16027E-18
      22  -0.11193E-02  -0.17998E-18
      23  -0.11193E-02  -0.20223E-18
      24  -0.11193E-02  -0.21240E-18
      25  -0.11193E-02  -0.20819E-18
      26  -0.11193E-02  -0.21862E-18
      27  -0.11193E-02  -0.24131E-18
      28   0.11070E-02   0.26093E-19
      29   0.11070E-02   0.18660E-19
      30   0.11070E-02   0.30260E-19
      31   0.11070E-02   0.44086E-21
      32   0.11070E-02   0.50445E-20
      33   0.11070E-02   0.69972E-20
      34  -0.10948E-02  -0.62513E-19
      35  -0.10948E-02  -0.68772E-19
      36  -0.10948E-02  -0.10791E-18
      37  -0.10948E-02  -0.10423E-18
      38  -0.10948E-02  -0.55346E-19
      39  -0.10948E-02  -0.92516E-19
      40  -0.10948E-02  -0.31423E-19
      41  -0.10948E-02  -0.43489E-19
      42  -0.10948E-02  -0.65367E-19
      43  -0.10948E-02  -0.93053E-19
      44  -0.10948E-02  -0.62598E-19
      45  -0.10948E-02  -0.50489E-19
      46  -0.10948E-02  -0.10842E-18
      47  -0.10948E-02  -0.95912E-19
      48  -0.10948E-02  -0.82086E-19
      49  -0.10948E-02  -0.71906E-19
      50  -0.10948E-02  -0.10932E-18
      51  -0.10948E-02  -0.10971E-18
      52  -0.10948E-02  -0.97186E-19
      53  -0.10948E-02  -0.81105E-19
      54  -0.10948E-02  -0.47536E-19
      55  -0.10948E-02  -0.59053E-19
      56  -0.10948E-02  -0.86783E-19
      57  -0.10948E-02  -0.85942E-19
      58   0.10828E-02   0.13611E-18
      59   0.10828E-02   0.14310E-18
      60   0.10828E-02   0.17751E-18
      61   0.10828E-02   0.18091E-18
      62   0.10828E-02   0.10768E-18
      63   0.10828E-02   0.13382E-18
      64   0.10828E-02   0.49210E-19
      65   0.10828E-02   0.61425E-19
      66   0.10828E-02   0.86886E-19
      67   0.10828E-02   0.11774E-18
      68   0.10828E-02   0.98944E-19
      69   0.10828E-02   0.12507E-18
      70   0.10828E-02   0.17150E-18
      71   0.10828E-02   0.18630E-18
      72   0.10828E-02   0.96817E-19
      73   0.10828E-02   0.14609E-18
      74   0.10828E-02   0.12916E-18
      75   0.10828E-02   0.17888E-18
      76   0.10828E-02   0.16376E-18
      77   0.10828E-02   0.15193E-18
      78   0.10828E-02   0.81127E-19
      79   0.10828E-02   0.12966E-18
      80   0.10828E-02   0.16839E-18
      81   0.10828E-02   0.16416E-18
      82   0.10592E-02   0.45955E-19
      83   0.10592E-02  -0.19082E-19
      84   0.10592E-02   0.34087E-19
      85   0.10592E-02   0.32596E-19
      86   0.10592E-02   0.39402E-20
      87   0.10592E-02   0.22939E-19
      88   0.10592E-02  -0.96481E-20
      89   0.10592E-02   0.58855E-20
      90   0.10592E-02   0.85419E-20
      91   0.10592E-02  -0.28710E-19
      92   0.10592E-02   0.16862E-19
      93   0.10592E-02   0.19199E-19
      94  -0.10477E-02   0.51705E-19
      95  -0.10477E-02  -0.10214E-18
      96  -0.10477E-02  -0.12212E-18
      97  -0.10477E-02  -0.74220E-19
      98  -0.10477E-02  -0.70855E-19
      99  -0.10477E-02  -0.14581E-18
     100  -0.10477E-02  -0.10801E-18
  970015   0.12611E-09  -0.29191E-20
  970016   0.12611E-09  -0.32276E-20
  970017   0.12611E-09  -0.29680E-20
  970018   0.12611E-09  -0.28238E-20
  970019   0.12611E-09  -0.29038E-20
  970020   0.64012E-10  -0.77651E-21
  970021  -0.70257E-09  -0.27241E-20
  970022  -0.70257E-09  -0.27293E-20
  970023  -0.70257E-09  -0.34769E-20
  970024  -0.70257E-09  -0.36041E-20
  970025   0.64012E-10  -0.39343E-21
  970026   0.64012E-10  -0.74290E-21
  970027  -0.70257E-09  -0.34781E-20
  970028  -0.70257E-09  -0.36041E-20
  970029  -0.70257E-09  -0.27350E-20
  970030  -0.70257E-09  -0.27405E-20
  970031   0.64012E-10  -0.97015E-21
  970032   0.73479E-09  -0.14718E-20
  970033   0.73479E-09  -0.13417E-20
  970034   0.11271E-08  -0.17455E-20
  970035   0.11271E-08  -0.18671E-20
  970036   0.11271E-08  -0.11529E-20
  970037   0.11271E-08  -0.12214E-20
  970038   0.73479E-09  -0.31442E-21
  970039   0.73479E-09  -0.25652E-21
  970040   0.73479E-09  -0.25213E-21
  970041   0.73479E-09  -0.19542E-21
  970042   0.11271E-08  -0.12259E-20
  970043   0.11271E-08  -0.12944E-20
  970044   0.11271E-08  -0.17827E-20
  970045   0.11271E-08  -0.19044E-20
  970046   0.73479E-09  -0.14362E-20
  970047   0.73479E-09  -0.13062E-20
  970048   0.85691E-09  -0.12584E-20
  970049   0.85691E-09  -0.95240E-21
  970050   0.85691E-09  -0.71719E-21
  970051   0.85691E-09  -0.10444E-20
  970052   0.28075E-08  -0.19251E-21
  970053   0.28075E-08  -0.62353E-22
  970054   0.25154E-08  -0.21091E-21
  970055   0.25154E-08  -0.20758E-21
  970056   0.25154E-08   0.60382E-22
  970057   0.25154E-08   0.40357E-22
  970058   0.28075E-08  -0.73859E-21
  970059   0.28075E-08  -0.57274E-21
  970060   0.28075E-08  -0.63374E-21
  970061   0.28075E-08  -0.46768E-21
  970062   0.25154E-08   0.65769E-22
  970063   0.25154E-08   0.45147E-22
  970064   0.25154E-08  -0.29494E-21
  970065   0.25154E-08  -0.29176E-21
  970066   0.28075E-08  -0.45463E-22
  970067   0.28075E-08   0.84926E-22
  970068   0.31563E-08   0.12767E-20
  970069   0.31563E-08   0.14018E-20
  970070   0.31563E-08   0.44900E-21
  970071   0.31563E-08   0.34611E-21
  970072   0.31563E-08   0.55027E-21
  970073   0.31563E-08   0.44808E-21
  970074   0.31563E-08   0.11470E-20
  970075   0.31563E-08   0.12724E-20
  970076   0.12227E-08  -0.34374E-21
  970077   0.12227E-08  -0.34857E-21
  970078   0.12227E-08  -0.67124E-21
  970079   0.12227E-08  -0.68614E-21
  970080   0.12227E-08  -0.70793E-21
  970081   0.12227E-08  -0.72247E-21
  970082   0.12227E-08  -0.39110E-21
  970083   0.12227E-08  -0.39597E-21
  970084  -0.24482E-08  -0.22765E-20
  970085  -0.22026E-08  -0.20599E-20
  970086  -0.22026E-08  -0.20340E-20
  970087  -0.22026E-08  -0.22131E-20
  970088  -0.22026E-08  -0.21380E-20
  970089  -0.24482E-08  -0.28953E-20
  970090  -0.24482E-08  -0.27285E-20
  970091  -0.22026E-08  -0.22118E-20
  970092  -0.22026E-08  -0.21365E-20
  970093  -0.22026E-08  -0.19321E-20
  970094  -0.22026E-08  -0.19064E-20
  970095  -0.24482E-08  -0.21195E-20
  970096  -0.33510E-08  -0.17811E-21
  970097  -0.33510E-08  -0.18154E-21
  970098  -0.28888E-08   0.23074E-21
  970099  -0.28888E-08   0.23421E-21
  970100  -0.28888E-08   0.16325E-21
  970101  -0.28888E-08   0.11059E-21
  970102  -0.33510E-08  -0.29943E-21
  970103  -0.33510E-08  -0.30003E-21
  970104  -0.33510E-08  -0.28843E-21
  970105  -0.33510E-08  -0.28937E-21
  970106  -0.28888E-08   0.15667E-21
  970107  -0.28888E-08   0.10387E-21
  970108  -0.28888E-08   0.15689E-21
  970109  -0.28888E-08   0.16038E-21
  970110  -0.33510E-08  -0.16820E-21
  970111  -0.33510E-08  -0.17163E-21
  970112  -0.17948E-08   0.65937E-21
  970113  -0.17948E-08   0.48357E-21
  970114  -0.17948E-08   0.47649E-21
  970115  -0.17948E-08   0.64620E-21
  ------------ 

     Initial potential from superposition of free atoms

     starting charge    4.99986, renormalised to    5.00000

     negative rho (up, down):  1.549E-06 1.519E-06
     Starting wfc are    4 randomized atomic wfcs +   21 random wfc

     total cpu time spent up to now is       86.2 secs

     per-process dynamical memory:   945.9 Mb

     Self-consistent Calculation

     iteration #  1     ecut=   150.00 Ry     beta=0.70
     Davidson diagonalization with overlap
     ethr =  1.00E-02,  avg # of iterations =  8.5

     Threshold (ethr) on eigenvalues was too large:
     Diagonalizing with lowered threshold

     Davidson diagonalization with overlap
     ethr =  7.47E-05,  avg # of iterations =  8.9

     negative rho (up, down):  1.739E-07 7.351E-07

     total cpu time spent up to now is      770.1 secs

     total energy              =     -21.36237965 Ry
     Harris-Foulkes estimate   =     -21.34512484 Ry
     estimated scf accuracy    <       0.00373701 Ry

     total magnetization       =     1.31 Bohr mag/cell
     absolute magnetization    =     1.31 Bohr mag/cell

     iteration #  2     ecut=   150.00 Ry     beta=0.70
     Davidson diagonalization with overlap
     ethr =  7.47E-05,  avg # of iterations =  2.5

     negative rho (up, down):  1.684E-04 1.161E-04

     total cpu time spent up to now is     1003.5 secs

     total energy              =     -21.24808257 Ry
     Harris-Foulkes estimate   =     -21.39590721 Ry
     estimated scf accuracy    <       0.01045960 Ry

     total magnetization       =     3.00 Bohr mag/cell
     absolute magnetization    =     3.00 Bohr mag/cell

     iteration #  3     ecut=   150.00 Ry     beta=0.70
     Davidson diagonalization with overlap
     ethr =  7.47E-05,  avg # of iterations =  3.8

     negative rho (up, down):  4.626E-06 3.438E-06

     total cpu time spent up to now is     1325.2 secs

     total energy              =     -21.37560407 Ry
     Harris-Foulkes estimate   =     -21.40249050 Ry
     estimated scf accuracy    <       0.00942053 Ry

     total magnetization       =    -3.00 Bohr mag/cell
     absolute magnetization    =     3.00 Bohr mag/cell

     iteration #  4     ecut=   150.00 Ry     beta=0.70
     Davidson diagonalization with overlap
     ethr =  7.47E-05,  avg # of iterations =  1.9
