
     Program PWSCF v.6.2 starts on 27Jul2018 at 21:19:55 

     This program is part of the open-source Quantum ESPRESSO suite
     for quantum simulation of materials; please cite
         "P. Giannozzi et al., J. Phys.:Condens. Matter 21 395502 (2009);
         "P. Giannozzi et al., J. Phys.:Condens. Matter 29 465901 (2017);
          URL http://www.quantum-espresso.org", 
     in publications or presentations arising from this work. More details at
     http://www.quantum-espresso.org/quote

     Parallel version (MPI & OpenMP), running on      64 processor cores
     Number of MPI processes:                32
     Threads/MPI process:                     2

     MPI processes distributed on     1 nodes
     R & G space division:  proc/nbgrp/npool/nimage =      32
     Waiting for input...
     Reading input from standard input

     Current dimensions of program PWSCF are:
     Max number of different atomic species (ntypx) = 20
     Max number of k-points (npk) =  40000
     Max angular momentum in pseudopotentials (lmaxx) =  3

     Subspace diagonalization in iterative solution of the eigenvalue problem:
     one sub-group per band group will be used
     scalapack distributed-memory algorithm (size of sub-group:  4*  4 procs)

 
     Parallelization info
     --------------------
     sticks:   dense  smooth     PW     G-vecs:    dense   smooth      PW
     Min          50      50     14                 9030     9030    1298
     Max          51      51     15                 9065     9065    1318
     Sum        1617    1617    451               289415   289415   41917
 


     bravais-lattice index     =            0
     lattice parameter (alat)  =       6.2737  a.u.
     unit-cell volume          =    2142.8622 (a.u.)^3
     number of atoms/cell      =            4
     number of atomic types    =            1
     number of electrons       =        20.00
     number of Kohn-Sham states=           30
     kinetic-energy cutoff     =     100.0000  Ry
     charge density cutoff     =     400.0000  Ry
     convergence threshold     =      1.0E-09
     mixing beta               =       0.7000
     number of iterations used =            8  plain     mixing
     Exchange-correlation      = PZ ( 1  1  0  0 0 0)

     celldm(1)=   6.273702  celldm(2)=   0.000000  celldm(3)=   0.000000
     celldm(4)=   0.000000  celldm(5)=   0.000000  celldm(6)=   0.000000

     crystal axes: (cart. coord. in units of alat)
               a(1) = (   1.000000   0.000000   0.000000 )  
               a(2) = (   0.000000   1.299858   0.000000 )  
               a(3) = (   0.000000   0.000000   6.676157 )  

     reciprocal axes: (cart. coord. in units 2 pi/alat)
               b(1) = (  1.000000  0.000000  0.000000 )  
               b(2) = (  0.000000  0.769315  0.000000 )  
               b(3) = (  0.000000  0.000000  0.149787 )  


     PseudoPot. # 1 for P  read from file:
     ./P.UPF
     MD5 check sum: 9e9c0d5cfb0fc50679b9fd28a02c9e05
     Pseudo is Norm-conserving + core correction, Zval =  5.0
     Generated using "atomic" code by A. Dal Corso v.6.0 svn rev. 13079
     Using radial grid of 1147 points,  2 beta functions with: 
                l(1) =   0
                l(2) =   1

     atomic species   valence    mass     pseudopotential
       P               5.00    30.97400     P ( 1.00)

      4 Sym. Ops. (no inversion) found ( 2 have fractional translation)


                                    s                        frac. trans.

      isym =  1     identity                                     

 cryst.   s( 1) = (     1          0          0      )
                  (     0          1          0      )
                  (     0          0          1      )

 cart.    s( 1) = (  1.0000000  0.0000000  0.0000000 )
                  (  0.0000000  1.0000000  0.0000000 )
                  (  0.0000000  0.0000000  1.0000000 )


      isym =  2     180 deg rotation - cart. axis [0,0,1]        

 cryst.   s( 2) = (    -1          0          0      )    f =(  0.5000000 )
                  (     0         -1          0      )       (  0.4999999 )
                  (     0          0          1      )       (  0.0000000 )

 cart.    s( 2) = ( -1.0000000  0.0000000  0.0000000 )    f =(  0.5000000 )
                  (  0.0000000 -1.0000000  0.0000000 )       (  0.6499291 )
                  (  0.0000000  0.0000000  1.0000000 )       (  0.0000000 )


      isym =  3     inv. 180 deg rotation - cart. axis [0,1,0]   

 cryst.   s( 3) = (     1          0          0      )    f =(  0.5000000 )
                  (     0         -1          0      )       (  0.4999999 )
                  (     0          0          1      )       (  0.0000000 )

 cart.    s( 3) = (  1.0000000  0.0000000  0.0000000 )    f =(  0.5000000 )
                  (  0.0000000 -1.0000000  0.0000000 )       (  0.6499291 )
                  (  0.0000000  0.0000000  1.0000000 )       (  0.0000000 )


      isym =  4     inv. 180 deg rotation - cart. axis [1,0,0]   

 cryst.   s( 4) = (    -1          0          0      )
                  (     0          1          0      )
                  (     0          0          1      )

 cart.    s( 4) = ( -1.0000000  0.0000000  0.0000000 )
                  (  0.0000000  1.0000000  0.0000000 )
                  (  0.0000000  0.0000000  1.0000000 )


   Cartesian axes

     site n.     atom                  positions (alat units)
         1          P    tau(   1) = (   0.5000000   0.5432110   1.2355230  )
         2          P    tau(   2) = (   0.5000000   0.7566476   1.8874023  )
         3          P    tau(   3) = (   0.0000000   1.1931401   1.8874023  )
         4          P    tau(   4) = (   0.0000000   0.1067183   1.2355230  )

   Crystallographic axes

     site n.     atom                  positions (cryst. coord.)
         1          P    tau(   1) = (  0.5000000  0.4179001  0.1850650  )
         2          P    tau(   2) = (  0.5000000  0.5821000  0.2827079  )
         3          P    tau(   3) = (  0.0000000  0.9179000  0.2827079  )
         4          P    tau(   4) = (  0.0000000  0.0821000  0.1850650  )

     number of k points=    36  gaussian smearing, width (Ry)=  0.0010
                       cart. coord. in units 2pi/alat
        k(    1) = (   0.5000000   0.0000000   0.0000000), wk =   0.0555556
        k(    2) = (   0.4750000   0.0000000   0.0000000), wk =   0.0555556
        k(    3) = (   0.4500000   0.0000000   0.0000000), wk =   0.0555556
        k(    4) = (   0.4250000   0.0000000   0.0000000), wk =   0.0555556
        k(    5) = (   0.4000000   0.0000000   0.0000000), wk =   0.0555556
        k(    6) = (   0.3750000   0.0000000   0.0000000), wk =   0.0555556
        k(    7) = (   0.3500000   0.0000000   0.0000000), wk =   0.0555556
        k(    8) = (   0.3250000   0.0000000   0.0000000), wk =   0.0555556
        k(    9) = (   0.3000000   0.0000000   0.0000000), wk =   0.0555556
        k(   10) = (   0.2750000   0.0000000   0.0000000), wk =   0.0555556
        k(   11) = (   0.2500000   0.0000000   0.0000000), wk =   0.0555556
        k(   12) = (   0.2250000   0.0000000   0.0000000), wk =   0.0555556
        k(   13) = (   0.2000000   0.0000000   0.0000000), wk =   0.0555556
        k(   14) = (   0.1750000   0.0000000   0.0000000), wk =   0.0555556
        k(   15) = (   0.1500000   0.0000000   0.0000000), wk =   0.0555556
        k(   16) = (   0.1250000   0.0000000   0.0000000), wk =   0.0555556
        k(   17) = (   0.1000000   0.0000000   0.0000000), wk =   0.0555556
        k(   18) = (   0.0750000   0.0000000   0.0000000), wk =   0.0555556
        k(   19) = (   0.0500000   0.0000000   0.0000000), wk =   0.0555556
        k(   20) = (   0.0250000   0.0000000   0.0000000), wk =   0.0555556
        k(   21) = (   0.0000000   0.0000000   0.0000000), wk =   0.0555556
        k(   22) = (   0.0000000   0.0256436   0.0000000), wk =   0.0555556
        k(   23) = (   0.0000000   0.0512879   0.0000000), wk =   0.0555556
        k(   24) = (   0.0000000   0.0769315   0.0000000), wk =   0.0555556
        k(   25) = (   0.0000000   0.1025750   0.0000000), wk =   0.0555556
        k(   26) = (   0.0000000   0.1282193   0.0000000), wk =   0.0555556
        k(   27) = (   0.0000000   0.1538629   0.0000000), wk =   0.0555556
        k(   28) = (   0.0000000   0.1795065   0.0000000), wk =   0.0555556
        k(   29) = (   0.0000000   0.2051508   0.0000000), wk =   0.0555556
        k(   30) = (   0.0000000   0.2307944   0.0000000), wk =   0.0555556
        k(   31) = (   0.0000000   0.2564379   0.0000000), wk =   0.0555556
        k(   32) = (   0.0000000   0.2820823   0.0000000), wk =   0.0555556
        k(   33) = (   0.0000000   0.3077258   0.0000000), wk =   0.0555556
        k(   34) = (   0.0000000   0.3333694   0.0000000), wk =   0.0555556
        k(   35) = (   0.0000000   0.3590137   0.0000000), wk =   0.0555556
        k(   36) = (   0.0000000   0.3846573   0.0000000), wk =   0.0555556

                       cryst. coord.
        k(    1) = (   0.5000000   0.0000000   0.0000000), wk =   0.0555556
        k(    2) = (   0.4750000   0.0000000   0.0000000), wk =   0.0555556
        k(    3) = (   0.4500000   0.0000000   0.0000000), wk =   0.0555556
        k(    4) = (   0.4250000   0.0000000   0.0000000), wk =   0.0555556
        k(    5) = (   0.4000000   0.0000000   0.0000000), wk =   0.0555556
        k(    6) = (   0.3750000   0.0000000   0.0000000), wk =   0.0555556
        k(    7) = (   0.3500000   0.0000000   0.0000000), wk =   0.0555556
        k(    8) = (   0.3250000   0.0000000   0.0000000), wk =   0.0555556
        k(    9) = (   0.3000000   0.0000000   0.0000000), wk =   0.0555556
        k(   10) = (   0.2750000   0.0000000   0.0000000), wk =   0.0555556
        k(   11) = (   0.2500000   0.0000000   0.0000000), wk =   0.0555556
        k(   12) = (   0.2250000   0.0000000   0.0000000), wk =   0.0555556
        k(   13) = (   0.2000000   0.0000000   0.0000000), wk =   0.0555556
        k(   14) = (   0.1750000   0.0000000   0.0000000), wk =   0.0555556
        k(   15) = (   0.1500000   0.0000000   0.0000000), wk =   0.0555556
        k(   16) = (   0.1250000   0.0000000   0.0000000), wk =   0.0555556
        k(   17) = (   0.1000000   0.0000000   0.0000000), wk =   0.0555556
        k(   18) = (   0.0750000   0.0000000   0.0000000), wk =   0.0555556
        k(   19) = (   0.0500000   0.0000000   0.0000000), wk =   0.0555556
        k(   20) = (   0.0250000   0.0000000   0.0000000), wk =   0.0555556
        k(   21) = (   0.0000000   0.0000000   0.0000000), wk =   0.0555556
        k(   22) = (   0.0000000   0.0333330   0.0000000), wk =   0.0555556
        k(   23) = (   0.0000000   0.0666670   0.0000000), wk =   0.0555556
        k(   24) = (   0.0000000   0.1000000   0.0000000), wk =   0.0555556
        k(   25) = (   0.0000000   0.1333330   0.0000000), wk =   0.0555556
        k(   26) = (   0.0000000   0.1666670   0.0000000), wk =   0.0555556
        k(   27) = (   0.0000000   0.2000000   0.0000000), wk =   0.0555556
        k(   28) = (   0.0000000   0.2333330   0.0000000), wk =   0.0555556
        k(   29) = (   0.0000000   0.2666670   0.0000000), wk =   0.0555556
        k(   30) = (   0.0000000   0.3000000   0.0000000), wk =   0.0555556
        k(   31) = (   0.0000000   0.3333330   0.0000000), wk =   0.0555556
        k(   32) = (   0.0000000   0.3666670   0.0000000), wk =   0.0555556
        k(   33) = (   0.0000000   0.4000000   0.0000000), wk =   0.0555556
        k(   34) = (   0.0000000   0.4333330   0.0000000), wk =   0.0555556
        k(   35) = (   0.0000000   0.4666670   0.0000000), wk =   0.0555556
        k(   36) = (   0.0000000   0.5000000   0.0000000), wk =   0.0555556

     Dense  grid:   289415 G-vectors     FFT dimensions: (  40,  54, 270)

     Dynamical RAM for                 wfc:       0.52 MB

     Dynamical RAM for     wfc (w. buffer):      19.14 MB

     Dynamical RAM for           str. fact:       0.14 MB

     Dynamical RAM for           local pot:       0.00 MB

     Dynamical RAM for          nlocal pot:       0.28 MB

     Dynamical RAM for                qrad:       0.14 MB

     Dynamical RAM for          rho,v,vnew:       0.86 MB

     Dynamical RAM for               rhoin:       0.29 MB

     Dynamical RAM for            rho*nmix:       2.21 MB

     Dynamical RAM for           G-vectors:       0.59 MB

     Dynamical RAM for          h,s,v(r/c):       0.04 MB

     Dynamical RAM for          <psi|beta>:       0.01 MB

     Dynamical RAM for                 psi:       2.07 MB

     Dynamical RAM for                hpsi:       2.07 MB

     Dynamical RAM for      wfcinit/wfcrot:       1.06 MB

     Estimated static dynamical RAM per process >      24.65 MB

     Estimated max dynamical RAM per process >      28.84 MB

     Estimated total dynamical RAM >     922.82 MB

     Check: negative/imaginary core charge=   -0.000001    0.000000

     Initial potential from superposition of free atoms

     starting charge   19.99943, renormalised to   20.00000

     negative rho (up, down):  3.725E-06 0.000E+00
     Starting wfc are   16 randomized atomic wfcs +   14 random wfc

     total cpu time spent up to now is        1.8 secs

     Self-consistent Calculation

     iteration #  1     ecut=   100.00 Ry     beta= 0.70
     Davidson diagonalization with overlap
     ethr =  1.00E-02,  avg # of iterations =  8.3

     Threshold (ethr) on eigenvalues was too large:
     Diagonalizing with lowered threshold

     Davidson diagonalization with overlap
     ethr =  5.11E-04,  avg # of iterations =  1.8

     negative rho (up, down):  1.668E-07 0.000E+00

     total cpu time spent up to now is       13.1 secs

     total energy              =     -86.79243432 Ry
     Harris-Foulkes estimate   =     -86.83329220 Ry
     estimated scf accuracy    <       0.10112195 Ry

     iteration #  2     ecut=   100.00 Ry     beta= 0.70
     Davidson diagonalization with overlap
     ethr =  5.06E-04,  avg # of iterations =  3.1

     total cpu time spent up to now is       16.7 secs

     total energy              =     -86.79458926 Ry
     Harris-Foulkes estimate   =     -86.80676925 Ry
     estimated scf accuracy    <       0.01876769 Ry

     iteration #  3     ecut=   100.00 Ry     beta= 0.70
     Davidson diagonalization with overlap
     ethr =  9.38E-05,  avg # of iterations =  3.4

     total cpu time spent up to now is       20.9 secs

     total energy              =     -86.79856784 Ry
     Harris-Foulkes estimate   =     -86.80581294 Ry
     estimated scf accuracy    <       0.01553212 Ry

     iteration #  4     ecut=   100.00 Ry     beta= 0.70
     Davidson diagonalization with overlap
     ethr =  7.77E-05,  avg # of iterations =  2.4

     total cpu time spent up to now is       24.2 secs

     total energy              =     -86.80168033 Ry
     Harris-Foulkes estimate   =     -86.80172487 Ry
     estimated scf accuracy    <       0.00009814 Ry

     iteration #  5     ecut=   100.00 Ry     beta= 0.70
     Davidson diagonalization with overlap
     ethr =  4.91E-07,  avg # of iterations =  5.4

     total cpu time spent up to now is       29.5 secs

     total energy              =     -86.80171692 Ry
     Harris-Foulkes estimate   =     -86.80172047 Ry
     estimated scf accuracy    <       0.00000628 Ry

     iteration #  6     ecut=   100.00 Ry     beta= 0.70
     Davidson diagonalization with overlap
     ethr =  3.14E-08,  avg # of iterations =  1.7

     total cpu time spent up to now is       32.5 secs

     total energy              =     -86.80171561 Ry
     Harris-Foulkes estimate   =     -86.80172216 Ry
     estimated scf accuracy    <       0.00002533 Ry

     iteration #  7     ecut=   100.00 Ry     beta= 0.70
     Davidson diagonalization with overlap
     ethr =  3.14E-08,  avg # of iterations =  1.0

     total cpu time spent up to now is       35.4 secs

     total energy              =     -86.80171901 Ry
     Harris-Foulkes estimate   =     -86.80171916 Ry
     estimated scf accuracy    <       0.00000063 Ry

     iteration #  8     ecut=   100.00 Ry     beta= 0.70
     Davidson diagonalization with overlap
     ethr =  3.14E-09,  avg # of iterations =  1.0

     total cpu time spent up to now is       38.2 secs

     total energy              =     -86.80171909 Ry
     Harris-Foulkes estimate   =     -86.80171909 Ry
     estimated scf accuracy    <          3.3E-09 Ry

     iteration #  9     ecut=   100.00 Ry     beta= 0.70
     Davidson diagonalization with overlap
     ethr =  1.64E-11,  avg # of iterations =  3.0

     total cpu time spent up to now is       42.1 secs

     End of self-consistent calculation

          k = 0.5000 0.0000 0.0000 ( 36140 PWs)   bands (ev):

   -14.4617 -14.4617 -11.8098 -11.8098  -6.7759  -6.7759  -4.8051  -4.8051
    -4.2519  -4.2519  -0.8750  -0.8750  -0.3136  -0.3136   1.0207   1.0207
     4.5092   4.5092   5.4605   5.4605   5.8549   5.8549   6.3277   6.3277
     6.5970   6.5970   7.7130   7.7130   7.7959   7.7959

     occupation numbers 
     1.0000   1.0000   1.0000   1.0000   1.0000   1.0000   1.0000   1.0000
     1.0000   1.0000   0.0000   0.0000   0.0000   0.0000   0.0000   0.0000
     0.0000   0.0000   0.0000   0.0000   0.0000   0.0000   0.0000   0.0000
     0.0000   0.0000   0.0000   0.0000   0.0000   0.0000

          k = 0.4750 0.0000 0.0000 ( 36170 PWs)   bands (ev):

   -14.7268 -14.1878 -12.0967 -11.5102  -6.8443  -6.7357  -4.9020  -4.7353
    -4.3097  -4.1530  -0.8941  -0.8055  -0.5311  -0.0770   0.7823   1.2688
     4.4545   4.5143   5.1419   5.6035   5.7944   6.1158   6.1297   6.2740
     6.6068   6.9340   7.4362   7.5405   7.9904   8.0290

     occupation numbers 
     1.0000   1.0000   1.0000   1.0000   1.0000   1.0000   1.0000   1.0000
     1.0000   1.0000   0.0000   0.0000   0.0000   0.0000   0.0000   0.0000
     0.0000   0.0000   0.0000   0.0000   0.0000   0.0000   0.0000   0.0000
     0.0000   0.0000   0.0000   0.0000   0.0000   0.0000

          k = 0.4500 0.0000 0.0000 ( 36166 PWs)   bands (ev):

   -14.9819 -13.9064 -12.3704 -11.1985  -6.9319  -6.7296  -5.0207  -4.6957
    -4.3231  -4.0202  -0.8577  -0.7258  -0.6942   0.1753   0.5582   1.5232
     4.3811   4.4449   4.8389   5.3598   5.9662   6.0041   6.1431   6.4269
     6.9208   7.1822   7.2783   7.2824   8.2048   8.2183

     occupation numbers 
     1.0000   1.0000   1.0000   1.0000   1.0000   1.0000   1.0000   1.0000
     1.0000   1.0000   0.0000   0.0000   0.0000   0.0000   0.0000   0.0000
     0.0000   0.0000   0.0000   0.0000   0.0000   0.0000   0.0000   0.0000
     0.0000   0.0000   0.0000   0.0000   0.0000   0.0000

          k = 0.4250 0.0000 0.0000 ( 36172 PWs)   bands (ev):

   -15.2263 -13.6192 -12.6308 -10.8752  -7.0295  -6.7586  -5.1554  -4.6864
    -4.2947  -3.8618  -0.8929  -0.7648  -0.5564   0.3583   0.4402   1.7809
     4.3052   4.3112   4.5519   5.1115   5.6742   5.9799   6.5051   6.7233
     6.9733   7.0184   7.2386   7.6351   8.1484   8.3492

     occupation numbers 
     1.0000   1.0000   1.0000   1.0000   1.0000   1.0000   1.0000   1.0000
     1.0000   1.0000   0.0000   0.0000   0.0000   0.0000   0.0000   0.0000
     0.0000   0.0000   0.0000   0.0000   0.0000   0.0000   0.0000   0.0000
     0.0000   0.0000   0.0000   0.0000   0.0000   0.0000

          k = 0.4000 0.0000 0.0000 ( 36146 PWs)   bands (ev):

   -15.4591 -13.3281 -12.8773 -10.5412  -7.1282  -6.8185  -5.3002  -4.7045
    -4.2335  -3.6858  -1.0269  -0.6176  -0.4268   0.2118   0.7147   2.0385
     4.1222   4.2599   4.2810   4.8625   5.3983   5.9718   6.7660   6.8467
     6.8775   6.8930   7.4716   7.9665   7.9753   8.4414

     occupation numbers 
     1.0000   1.0000   1.0000   1.0000   1.0000   1.0000   1.0000   1.0000
     1.0000   1.0000   0.0000   0.0000   0.0000   0.0000   0.0000   0.0000
     0.0000   0.0000   0.0000   0.0000   0.0000   0.0000   0.0000   0.0000
     0.0000   0.0000   0.0000   0.0000   0.0000   0.0000

          k = 0.3750 0.0000 0.0000 ( 36130 PWs)   bands (ev):

   -15.6799 -13.1099 -13.0357 -10.1973  -7.2205  -6.9024  -5.4502  -4.7446
    -4.1530  -3.4994  -1.1210  -0.4210  -0.3895   0.1981   0.9957   2.2918
     3.9205   4.0263   4.2373   4.6196   5.1389   5.9041   6.5241   6.5898
     6.8363   7.2491   7.6978   8.1898   8.2003   8.3216

     occupation numbers 
     1.0000   1.0000   1.0000   1.0000   1.0000   1.0000   1.0000   1.0000
     1.0000   1.0000   0.0000   0.0000   0.0000   0.0000   0.0000   0.0000
     0.0000   0.0000   0.0000   0.0000   0.0000   0.0000   0.0000   0.0000
     0.0000   0.0000   0.0000   0.0000   0.0000   0.0000

          k = 0.3500 0.0000 0.0000 ( 36192 PWs)   bands (ev):

   -15.8880 -13.3283 -12.7450  -9.8450  -7.2996  -7.0022  -5.6011  -4.8001
    -4.0683  -3.3090  -1.1678  -0.4818  -0.1811   0.3499   1.2802   2.5353
     3.7155   3.7881   4.2512   4.3874   4.8959   5.7683   6.0094   6.2945
     6.9102   7.5298   8.0513   8.1208   8.1241   8.2661

     occupation numbers 
     1.0000   1.0000   1.0000   1.0000   1.0000   1.0000   1.0000   1.0000
     1.0000   1.0000   0.0000   0.0000   0.0000   0.0000   0.0000   0.0000
     0.0000   0.0000   0.0000   0.0000   0.0000   0.0000   0.0000   0.0000
     0.0000   0.0000   0.0000   0.0000   0.0000   0.0000

          k = 0.3250 0.0000 0.0000 ( 36192 PWs)   bands (ev):

   -16.0831 -13.5322 -12.4600  -9.4858  -7.3594  -7.1113  -5.7497  -4.8644
    -3.9931  -3.1203  -1.1607  -0.6270   0.0955   0.5866   1.5650   2.7619
     3.5151   3.5664   4.1683   4.3069   4.6696   5.3701   5.5996   6.0785
     6.9858   7.2261   7.9321   8.1973   8.1978   8.3108

     occupation numbers 
     1.0000   1.0000   1.0000   1.0000   1.0000   1.0000   1.0000   1.0000
     1.0000   1.0000   0.0000   0.0000   0.0000   0.0000   0.0000   0.0000
     0.0000   0.0000   0.0000   0.0000   0.0000   0.0000   0.0000   0.0000
     0.0000   0.0000   0.0000   0.0000   0.0000   0.0000

          k = 0.3000 0.0000 0.0000 ( 36144 PWs)   bands (ev):

   -16.2649 -13.7216 -12.1850  -9.1220  -7.3940  -7.2239  -5.8935  -4.9307
    -3.9377  -2.9381  -1.0953  -0.7813   0.4022   0.8609   1.8462   2.9613
     3.3241   3.3615   3.9637   4.3985   4.4600   4.7336   5.4231   5.8768
     6.6560   6.9940   7.7483   8.1807   8.2894   8.5200

     occupation numbers 
     1.0000   1.0000   1.0000   1.0000   1.0000   1.0000   1.0000   1.0000
     1.0000   1.0000   0.0000   0.0000   0.0000   0.0000   0.0000   0.0000
     0.0000   0.0000   0.0000   0.0000   0.0000   0.0000   0.0000   0.0000
     0.0000   0.0000   0.0000   0.0000   0.0000   0.0000

          k = 0.2750 0.0000 0.0000 ( 36152 PWs)   bands (ev):

   -16.4330 -13.8963 -11.9251  -8.7568  -7.3977  -7.3360  -6.0302  -4.9929
    -3.9068  -2.7668  -0.9719  -0.9314   0.7323   1.1560   2.1172   3.1181
     3.1449   3.1738   3.7743   4.0632   4.2673   4.5874   5.2507   5.6899
     6.0954   6.9199   7.5747   8.0766   8.3342   8.6056

     occupation numbers 
     1.0000   1.0000   1.0000   1.0000   1.0000   1.0000   1.0000   1.0000
     1.0000   1.0000   0.0000   0.0000   0.0000   0.0000   0.0000   0.0000
     0.0000   0.0000   0.0000   0.0000   0.0000   0.0000   0.0000   0.0000
     0.0000   0.0000   0.0000   0.0000   0.0000   0.0000

          k = 0.2500 0.0000 0.0000 ( 36142 PWs)   bands (ev):

   -16.5872 -14.0561 -11.6857  -8.3944  -7.4444  -7.3655  -6.1585  -5.0447
    -3.8999  -2.6101  -1.0724  -0.7954   1.0774   1.4631   2.3522   2.9790
     3.0039   3.2092   3.4821   3.6006   4.0916   4.7853   5.0876   5.5181
     5.5962   6.7900   7.4127   7.9037   8.4057   8.8573

     occupation numbers 
     1.0000   1.0000   1.0000   1.0000   1.0000   1.0000   1.0000   1.0000
     1.0000   1.0000   0.0000   0.0000   0.0000   0.0000   0.0000   0.0000
     0.0000   0.0000   0.0000   0.0000   0.0000   0.0000   0.0000   0.0000
     0.0000   0.0000   0.0000   0.0000   0.0000   0.0000

          k = 0.2250 0.0000 0.0000 ( 36138 PWs)   bands (ev):

   -16.7272 -14.2011 -11.4718  -8.0411  -7.5467  -7.2934  -6.2772  -5.0791
    -3.9125  -2.4705  -1.2023  -0.5740   1.4230   1.7750   2.3876   2.8275
     2.8535   3.1163   3.2053   3.4429   3.9330   4.9365   5.0351   5.2032
     5.3615   6.6288   7.2629   7.7243   8.5123   9.1777

     occupation numbers 
     1.0000   1.0000   1.0000   1.0000   1.0000   1.0000   1.0000   1.0000
     1.0000   1.0000   0.0000   0.0000   0.0000   0.0000   0.0000   0.0000
     0.0000   0.0000   0.0000   0.0000   0.0000   0.0000   0.0000   0.0000
     0.0000   0.0000   0.0000   0.0000   0.0000   0.0000

          k = 0.2000 0.0000 0.0000 ( 36140 PWs)   bands (ev):

   -16.8529 -14.3310 -11.2871  -7.7053  -7.6414  -7.1798  -6.3851  -5.0882
    -3.9388  -2.3498  -1.3200  -0.3179   1.7340   1.9858   2.0804   2.6909
     2.7289   3.1047   3.2168   3.3015   3.7918   4.7985   4.9536   5.2203
     5.3263   6.4486   7.1259   7.5533   8.6563   9.5215

     occupation numbers 
     1.0000   1.0000   1.0000   1.0000   1.0000   1.0000   1.0000   1.0000
     1.0000   1.0000   0.0000   0.0000   0.0000   0.0000   0.0000   0.0000
     0.0000   0.0000   0.0000   0.0000   0.0000   0.0000   0.0000   0.0000
     0.0000   0.0000   0.0000   0.0000   0.0000   0.0000

          k = 0.1750 0.0000 0.0000 ( 36154 PWs)   bands (ev):

   -16.9642 -14.4457 -11.1337  -7.7272  -7.3984  -7.0259  -6.4818  -5.0627
    -3.9730  -2.2487  -1.4247  -0.0373   1.4499   1.9070   2.3360   2.5697
     2.6676   3.0204   3.1764   3.4897   3.6688   4.6744   4.8392   5.0943
     5.6503   6.2545   7.0020   7.3959   8.8341   9.6384

     occupation numbers 
     1.0000   1.0000   1.0000   1.0000   1.0000   1.0000   1.0000   1.0000
     1.0000   1.0000   0.0000   0.0000   0.0000   0.0000   0.0000   0.0000
     0.0000   0.0000   0.0000   0.0000   0.0000   0.0000   0.0000   0.0000
     0.0000   0.0000   0.0000   0.0000   0.0000   0.0000

          k = 0.1500 0.0000 0.0000 ( 36130 PWs)   bands (ev):

   -17.0608 -14.5454 -11.0110  -7.8029  -7.1335  -6.8371  -6.5665  -4.9936
    -4.0103  -2.1674  -1.5160   0.2574   0.9159   1.7960   2.3929   2.4641
     2.8105   3.0676   3.1493   3.5660   3.8078   4.5642   4.8134   4.9833
     5.9969   6.0493   6.8912   7.2554   9.0037   9.3372

     occupation numbers 
     1.0000   1.0000   1.0000   1.0000   1.0000   1.0000   1.0000   1.0000
     1.0000   1.0000   0.0000   0.0000   0.0000   0.0000   0.0000   0.0000
     0.0000   0.0000   0.0000   0.0000   0.0000   0.0000   0.0000   0.0000
     0.0000   0.0000   0.0000   0.0000   0.0000   0.0000

          k = 0.1250 0.0000 0.0000 ( 36116 PWs)   bands (ev):

   -17.1428 -14.6297 -10.9167  -7.8681  -6.9217  -6.6388  -6.6232  -4.8764
    -4.0469  -2.1054  -1.5937   0.4143   0.5549   1.4828   2.3346   2.3743
     2.9753   3.0596   3.4549   3.4909   4.1487   4.4678   4.8382   4.8869
     5.8374   6.3528   6.7938   7.1342   8.7548   9.3650

     occupation numbers 
     1.0000   1.0000   1.0000   1.0000   1.0000   1.0000   1.0000   1.0000
     1.0000   1.0000   0.0000   0.0000   0.0000   0.0000   0.0000   0.0000
     0.0000   0.0000   0.0000   0.0000   0.0000   0.0000   0.0000   0.0000
     0.0000   0.0000   0.0000   0.0000   0.0000   0.0000

          k = 0.1000 0.0000 0.0000 ( 36110 PWs)   bands (ev):

   -17.2100 -14.6989 -10.8470  -7.9220  -6.7668  -6.6984  -6.3984  -4.7174
    -4.0800  -2.0622  -1.6574  -0.0372   0.8424   1.1157   2.2706   2.3004
     2.8995   3.2487   3.4914   3.8095   4.3847   4.5021   4.8045   4.9035
     5.6270   6.6969   6.7100   7.0340   8.2830   9.3168

     occupation numbers 
     1.0000   1.0000   1.0000   1.0000   1.0000   1.0000   1.0000   1.0000
     1.0000   1.0000   0.0000   0.0000   0.0000   0.0000   0.0000   0.0000
     0.0000   0.0000   0.0000   0.0000   0.0000   0.0000   0.0000   0.0000
     0.0000   0.0000   0.0000   0.0000   0.0000   0.0000

          k = 0.0750 0.0000 0.0000 ( 36096 PWs)   bands (ev):

   -17.2623 -14.7526 -10.7979  -7.9643  -6.7449  -6.6632  -6.1819  -4.5375
    -4.1075  -2.0373  -1.7072  -0.4197   0.7671   1.1039   2.2174   2.2425
     2.8401   3.2737   3.6443   4.1321   4.3148   4.7355   4.8551   5.0309
     5.4315   6.6410   6.9558   6.9892   7.7963   8.9766

     occupation numbers 
     1.0000   1.0000   1.0000   1.0000   1.0000   1.0000   1.0000   1.0000
     1.0000   1.0000   0.0000   0.0000   0.0000   0.0000   0.0000   0.0000
     0.0000   0.0000   0.0000   0.0000   0.0000   0.0000   0.0000   0.0000
     0.0000   0.0000   0.0000   0.0000   0.0000   0.0000

          k = 0.0500 0.0000 0.0000 ( 36118 PWs)   bands (ev):

   -17.2997 -14.7911 -10.7657  -7.9948  -6.7783  -6.6000  -5.9974  -4.3685
    -4.1280  -2.0289  -1.7428  -0.7125   0.4798   1.3191   2.1784   2.2005
     2.7973   3.2494   3.8176   4.2591   4.3541   4.6802   5.1840   5.2572
     5.2696   6.5884   6.9000   7.1605   7.3236   8.7983

     occupation numbers 
     1.0000   1.0000   1.0000   1.0000   1.0000   1.0000   1.0000   1.0000
     1.0000   1.0000   0.0000   0.0000   0.0000   0.0000   0.0000   0.0000
     0.0000   0.0000   0.0000   0.0000   0.0000   0.0000   0.0000   0.0000
     0.0000   0.0000   0.0000   0.0000   0.0000   0.0000

          k = 0.0250 0.0000 0.0000 ( 36104 PWs)   bands (ev):

   -17.3221 -14.8142 -10.7476  -8.0131  -6.7984  -6.5666  -5.8713  -4.2466
    -4.1407  -2.0311  -1.7642  -0.8958   0.2888   1.4636   2.1548   2.1748
     2.7712   3.2298   3.9395   4.2215   4.4620   4.6416   5.1616   5.4406
     5.5500   6.5550   6.8666   6.9088   7.1769   8.8441

     occupation numbers 
     1.0000   1.0000   1.0000   1.0000   1.0000   1.0000   1.0000   1.0000
     1.0000   1.0000   0.0000   0.0000   0.0000   0.0000   0.0000   0.0000
     0.0000   0.0000   0.0000   0.0000   0.0000   0.0000   0.0000   0.0000
     0.0000   0.0000   0.0000   0.0000   0.0000   0.0000

          k = 0.0000 0.0000 0.0000 ( 36111 PWs)   bands (ev):

   -17.3296 -14.8218 -10.7418  -8.0192  -6.8052  -6.5563  -5.8262  -4.2020
    -4.1450  -2.0338  -1.7713  -0.9579   0.2215   1.5151   2.1468   2.1660
     2.7624   3.2228   3.9837   4.2079   4.4920   4.6271   5.1236   5.5437
     5.7194   6.5435   6.7047   6.8555   7.1505   8.9797

     occupation numbers 
     1.0000   1.0000   1.0000   1.0000   1.0000   1.0000   1.0000   1.0000
     1.0000   1.0000   0.0000   0.0000   0.0000   0.0000   0.0000   0.0000
     0.0000   0.0000   0.0000   0.0000   0.0000   0.0000   0.0000   0.0000
     0.0000   0.0000   0.0000   0.0000   0.0000   0.0000

          k = 0.0000 0.0256 0.0000 ( 36092 PWs)   bands (ev):

   -17.3232 -14.8257 -10.7595  -8.0443  -6.7700  -6.5662  -5.8212  -4.2041
    -4.0988  -2.1554  -1.6566  -0.9534   0.2115   1.4999   2.1649   2.1750
     2.7712   3.2350   3.9330   4.1630   4.4275   4.6377   5.2159   5.5837
     5.7279   6.5448   6.7408   6.8701   7.1092   9.0112

     occupation numbers 
     1.0000   1.0000   1.0000   1.0000   1.0000   1.0000   1.0000   1.0000
     1.0000   1.0000   0.0000   0.0000   0.0000   0.0000   0.0000   0.0000
     0.0000   0.0000   0.0000   0.0000   0.0000   0.0000   0.0000   0.0000
     0.0000   0.0000   0.0000   0.0000   0.0000   0.0000

          k = 0.0000 0.0513 0.0000 ( 36082 PWs)   bands (ev):

   -17.3040 -14.8376 -10.8097  -8.1192  -6.6676  -6.5887  -5.8062  -4.2107
    -3.9680  -2.3610  -1.4709  -0.9398   0.1812   1.4564   2.2018   2.2178
     2.7975   3.2717   3.7958   3.9876   4.3872   4.6696   5.3287   5.6893
     5.8075   6.5425   6.8472   6.9147   7.0015   8.6549

     occupation numbers 
     1.0000   1.0000   1.0000   1.0000   1.0000   1.0000   1.0000   1.0000
     1.0000   1.0000   0.0000   0.0000   0.0000   0.0000   0.0000   0.0000
     0.0000   0.0000   0.0000   0.0000   0.0000   0.0000   0.0000   0.0000
     0.0000   0.0000   0.0000   0.0000   0.0000   0.0000

          k = 0.0000 0.0769 0.0000 ( 36090 PWs)   bands (ev):

   -17.2722 -14.8584 -10.8840  -8.2421  -6.6084  -6.5057  -5.7814  -4.2221
    -3.7713  -2.5851  -1.2782  -0.9156   0.1299   1.3900   2.2463   2.3021
     2.8409   3.3327   3.6019   3.7390   4.4114   4.7224   5.3154   5.8332
     6.0130   6.5084   6.8777   6.9919   7.0180   8.3199

     occupation numbers 
     1.0000   1.0000   1.0000   1.0000   1.0000   1.0000   1.0000   1.0000
     1.0000   1.0000   0.0000   0.0000   0.0000   0.0000   0.0000   0.0000
     0.0000   0.0000   0.0000   0.0000   0.0000   0.0000   0.0000   0.0000
     0.0000   0.0000   0.0000   0.0000   0.0000   0.0000

          k = 0.0000 0.1026 0.0000 ( 36096 PWs)   bands (ev):

   -17.2278 -14.8893 -10.9714  -8.4075  -6.6122  -6.2947  -5.7471  -4.2389
    -3.5298  -2.8188  -1.0879  -0.8765   0.0571   1.3081   2.3082   2.4132
     2.9003   3.3762   3.4178   3.4810   4.4662   4.7953   5.2302   5.9942
     6.2650   6.3882   6.8112   7.1032   7.2448   7.9760

     occupation numbers 
     1.0000   1.0000   1.0000   1.0000   1.0000   1.0000   1.0000   1.0000
     1.0000   1.0000   0.0000   0.0000   0.0000   0.0000   0.0000   0.0000
     0.0000   0.0000   0.0000   0.0000   0.0000   0.0000   0.0000   0.0000
     0.0000   0.0000   0.0000   0.0000   0.0000   0.0000

          k = 0.0000 0.1282 0.0000 ( 36128 PWs)   bands (ev):

   -17.1711 -14.9319 -11.0606  -8.6061  -6.5935  -6.0455  -5.7034  -4.2616
    -3.2629  -3.0587  -0.9243  -0.7973  -0.0370   1.2192   2.3867   2.5460
     2.9684   3.1350   3.2393   3.5265   4.5426   4.8870   5.1271   6.1613
     6.1889   6.5020   6.8001   7.2355   7.5176   7.6471

     occupation numbers 
     1.0000   1.0000   1.0000   1.0000   1.0000   1.0000   1.0000   1.0000
     1.0000   1.0000   0.0000   0.0000   0.0000   0.0000   0.0000   0.0000
     0.0000   0.0000   0.0000   0.0000   0.0000   0.0000   0.0000   0.0000
     0.0000   0.0000   0.0000   0.0000   0.0000   0.0000

          k = 0.0000 0.1539 0.0000 ( 36148 PWs)   bands (ev):

   -17.1024 -14.9878 -11.1415  -8.8276  -6.5514  -5.7679  -5.6508  -4.2912
    -3.3020  -2.9875  -0.8338  -0.6306  -0.1498   1.1311   2.4800   2.6960
     2.8886   2.9406   3.1250   3.6575   4.6382   4.9945   5.0305   5.9603
     6.3299   6.7040   6.7667   7.3141   7.3800   7.8248

     occupation numbers 
     1.0000   1.0000   1.0000   1.0000   1.0000   1.0000   1.0000   1.0000
     1.0000   1.0000   0.0000   0.0000   0.0000   0.0000   0.0000   0.0000
     0.0000   0.0000   0.0000   0.0000   0.0000   0.0000   0.0000   0.0000
     0.0000   0.0000   0.0000   0.0000   0.0000   0.0000

          k = 0.0000 0.1795 0.0000 ( 36100 PWs)   bands (ev):

   -17.0221 -15.0581 -11.2059  -9.0625  -6.4873  -5.5898  -5.4706  -4.3282
    -3.5462  -2.7202  -0.7676  -0.4251  -0.2755   1.0508   2.5747   2.6437
     2.7530   2.8600   3.2154   3.8091   4.7519   4.9539   5.1100   5.7323
     6.4993   6.6178   6.8613   7.2058   7.2319   7.5255

     occupation numbers 
     1.0000   1.0000   1.0000   1.0000   1.0000   1.0000   1.0000   1.0000
     1.0000   1.0000   0.0000   0.0000   0.0000   0.0000   0.0000   0.0000
     0.0000   0.0000   0.0000   0.0000   0.0000   0.0000   0.0000   0.0000
     0.0000   0.0000   0.0000   0.0000   0.0000   0.0000

          k = 0.0000 0.2052 0.0000 ( 36096 PWs)   bands (ev):

   -16.9306 -15.1434 -11.2478  -9.3031  -6.4031  -5.5210  -5.1612  -4.3734
    -3.7882  -2.4802  -0.7006  -0.4028  -0.2082   0.9843   2.4052   2.4926
     2.7494   3.0359   3.3430   3.9794   4.8762   4.9107   5.2043   5.5383
     6.3709   6.6704   6.8144   7.0106   7.1367   7.3920

     occupation numbers 
     1.0000   1.0000   1.0000   1.0000   1.0000   1.0000   1.0000   1.0000
     1.0000   1.0000   0.0000   0.0000   0.0000   0.0000   0.0000   0.0000
     0.0000   0.0000   0.0000   0.0000   0.0000   0.0000   0.0000   0.0000
     0.0000   0.0000   0.0000   0.0000   0.0000   0.0000

          k = 0.0000 0.2308 0.0000 ( 36116 PWs)   bands (ev):

   -16.8286 -15.2435 -11.2631  -9.5433  -6.3009  -5.4453  -4.8491  -4.4270
    -4.0226  -2.2920  -0.6304  -0.5132   0.0138   0.9359   2.1765   2.2945
     2.8842   3.2231   3.4905   4.1660   4.8757   5.0364   5.1660   5.4725
     6.1245   6.5212   6.6708   6.8445   7.2647   7.4548

     occupation numbers 
     1.0000   1.0000   1.0000   1.0000   1.0000   1.0000   1.0000   1.0000
     1.0000   1.0000   0.0000   0.0000   0.0000   0.0000   0.0000   0.0000
     0.0000   0.0000   0.0000   0.0000   0.0000   0.0000   0.0000   0.0000
     0.0000   0.0000   0.0000   0.0000   0.0000   0.0000

          k = 0.0000 0.2564 0.0000 ( 36114 PWs)   bands (ev):

   -16.7167 -15.3571 -11.2499  -9.7786  -6.1819  -5.3634  -4.5651  -4.4891
    -4.2214  -2.1854  -0.5816  -0.5591   0.2366   0.9091   1.9607   2.0969
     3.0417   3.4217   3.6556   4.3666   4.8729   5.0061   5.2023   5.4509
     5.9801   6.1978   6.3421   7.0232   7.1189   7.4613

     occupation numbers 
     1.0000   1.0000   1.0000   1.0000   1.0000   1.0000   1.0000   1.0000
     1.0000   1.0000   0.0000   0.0000   0.0000   0.0000   0.0000   0.0000
     0.0000   0.0000   0.0000   0.0000   0.0000   0.0000   0.0000   0.0000
     0.0000   0.0000   0.0000   0.0000   0.0000   0.0000

          k = 0.0000 0.2821 0.0000 ( 36080 PWs)   bands (ev):

   -16.5958 -15.4823 -11.2077 -10.0054  -6.0476  -5.2764  -4.5626  -4.5593
    -4.1337  -2.1839  -0.5894  -0.4907   0.4551   0.9061   1.7599   1.9063
     3.2152   3.6321   3.8376   4.5782   4.8336   4.8800   5.3066   5.3843
     5.8780   5.8939   6.1595   6.8023   7.2077   7.4162

     occupation numbers 
     1.0000   1.0000   1.0000   1.0000   1.0000   1.0000   1.0000   1.0000
     1.0000   1.0000   0.0000   0.0000   0.0000   0.0000   0.0000   0.0000
     0.0000   0.0000   0.0000   0.0000   0.0000   0.0000   0.0000   0.0000
     0.0000   0.0000   0.0000   0.0000   0.0000   0.0000

          k = 0.0000 0.3077 0.0000 ( 36088 PWs)   bands (ev):

   -16.4671 -15.6166 -11.1373 -10.2206  -5.8990  -5.1854  -4.7627  -4.6370
    -3.8404  -2.2847  -0.5442  -0.4308   0.6643   0.9282   1.5764   1.7238
     3.4031   3.8550   4.0357   4.6559   4.7992   4.8829   5.1313   5.5376
     5.6141   5.6292   6.2709   6.4835   7.1493   7.3985

     occupation numbers 
     1.0000   1.0000   1.0000   1.0000   1.0000   1.0000   1.0000   1.0000
     1.0000   1.0000   0.0000   0.0000   0.0000   0.0000   0.0000   0.0000
     0.0000   0.0000   0.0000   0.0000   0.0000   0.0000   0.0000   0.0000
     0.0000   0.0000   0.0000   0.0000   0.0000   0.0000

          k = 0.0000 0.3334 0.0000 ( 36124 PWs)   bands (ev):

   -16.3316 -15.7573 -11.0400 -10.4217  -5.7369  -5.0918  -4.9737  -4.7210
    -3.5354  -2.4627  -0.4754  -0.3865   0.8604   0.9759   1.4119   1.5495
     3.6040   4.0900   4.2489   4.4681   4.8641   4.9305   5.0867   5.2775
     5.3539   5.7985   6.1772   6.4430   6.8850   7.4247

     occupation numbers 
     1.0000   1.0000   1.0000   1.0000   1.0000   1.0000   1.0000   1.0000
     1.0000   1.0000   0.0000   0.0000   0.0000   0.0000   0.0000   0.0000
     0.0000   0.0000   0.0000   0.0000   0.0000   0.0000   0.0000   0.0000
     0.0000   0.0000   0.0000   0.0000   0.0000   0.0000

          k = 0.0000 0.3590 0.0000 ( 36128 PWs)   bands (ev):

   -16.1910 -15.9017 -10.9177 -10.6064  -5.5623  -5.1793  -4.9970  -4.8100
    -3.2375  -2.6918  -0.4126  -0.3655   1.0426   1.0490   1.2682   1.3811
     3.8160   4.2540   4.3386   4.4728   4.7846   4.8587   5.0604   5.0843
     5.3357   5.8533   6.0532   6.4868   6.7812   7.1816

     occupation numbers 
     1.0000   1.0000   1.0000   1.0000   1.0000   1.0000   1.0000   1.0000
     1.0000   1.0000   0.0000   0.0000   0.0000   0.0000   0.0000   0.0000
     0.0000   0.0000   0.0000   0.0000   0.0000   0.0000   0.0000   0.0000
     0.0000   0.0000   0.0000   0.0000   0.0000   0.0000

          k = 0.0000 0.3847 0.0000 ( 36094 PWs)   bands (ev):

   -16.0470 -16.0470 -10.7724 -10.7724  -5.3760  -5.3760  -4.9025  -4.9025
    -2.9538  -2.9538  -0.3736  -0.3736   1.1468   1.1468   1.2142   1.2142
     4.0355   4.0358   4.5751   4.5754   4.7082   4.7089   4.9915   4.9915
     5.5873   5.5875   6.2772   6.2780   6.9563   6.9565

     occupation numbers 
     1.0000   1.0000   1.0000   1.0000   1.0000   1.0000   1.0000   1.0000
     1.0000   1.0000   0.0000   0.0000   0.0000   0.0000   0.0000   0.0000
     0.0000   0.0000   0.0000   0.0000   0.0000   0.0000   0.0000   0.0000
     0.0000   0.0000   0.0000   0.0000   0.0000   0.0000

     the Fermi energy is    -1.9456 ev

!    total energy              =     -86.80171909 Ry
     Harris-Foulkes estimate   =     -86.80171909 Ry
     estimated scf accuracy    <          3.2E-10 Ry

     The total energy is the sum of the following terms:

     one-electron contribution =    -437.56051587 Ry
     hartree contribution      =     222.16402803 Ry
     xc contribution           =     -48.78616038 Ry
     ewald contribution        =     177.38092913 Ry
     smearing contrib. (-TS)   =      -0.00000000 Ry

     convergence has been achieved in   9 iterations

     Forces acting on atoms (cartesian axes, Ry/au):

     atom    1 type  1   force =     0.00000000   -0.00194057    0.03527293
     atom    2 type  1   force =     0.00000000    0.00194264   -0.03527293
     atom    3 type  1   force =     0.00000000   -0.00194264   -0.03527293
     atom    4 type  1   force =     0.00000000    0.00194057    0.03527293
     The non-local contrib.  to forces
     atom    1 type  1   force =     0.00000000   -0.25366936    0.22106158
     atom    2 type  1   force =     0.00000000    0.25366998   -0.22105698
     atom    3 type  1   force =     0.00000000   -0.25366998   -0.22105698
     atom    4 type  1   force =     0.00000000    0.25366936    0.22106158
     The ionic contribution  to forces
     atom    1 type  1   force =    -0.00000000    1.39635482   -9.83417623
     atom    2 type  1   force =    -0.00000000   -1.39635602    9.83417623
     atom    3 type  1   force =     0.00000000    1.39635608    9.83417596
     atom    4 type  1   force =     0.00000000   -1.39635488   -9.83417596
     The local contribution  to forces
     atom    1 type  1   force =    -0.00000000   -1.16522156    9.66675454
     atom    2 type  1   force =    -0.00000000    1.16522046   -9.66676970
     atom    3 type  1   force =     0.00000000   -1.16521970   -9.66676955
     atom    4 type  1   force =     0.00000000    1.16522156    9.66675454
     The core correction contribution to forces
     atom    1 type  1   force =     0.00000000    0.02059073   -0.01835628
     atom    2 type  1   force =     0.00000000   -0.02058851    0.01835739
     atom    3 type  1   force =    -0.00000000    0.02058830    0.01835737
     atom    4 type  1   force =    -0.00000000   -0.02059073   -0.01835628
     The Hubbard contrib.    to forces
     atom    1 type  1   force =     0.00000000    0.00000000    0.00000000
     atom    2 type  1   force =     0.00000000    0.00000000    0.00000000
     atom    3 type  1   force =     0.00000000    0.00000000    0.00000000
     atom    4 type  1   force =     0.00000000    0.00000000    0.00000000
     The SCF correction term to forces
     atom    1 type  1   force =     0.00000000    0.00000477   -0.00001028
     atom    2 type  1   force =     0.00000000   -0.00000296    0.00002073
     atom    3 type  1   force =    -0.00000000    0.00000296    0.00002073
     atom    4 type  1   force =    -0.00000000   -0.00000477   -0.00001028

     Total force =     0.070653     Total SCF correction =     0.000034

     Writing output data file p.save
 
     init_run     :      2.53s CPU      1.52s WALL (       1 calls)
     electrons    :     76.73s CPU     40.52s WALL (       1 calls)
     forces       :      0.42s CPU      0.22s WALL (       1 calls)

     Called by init_run:
     wfcinit      :      1.98s CPU      1.09s WALL (       1 calls)
     wfcinit:atom :      0.03s CPU      0.01s WALL (      36 calls)
     wfcinit:wfcr :      1.86s CPU      1.02s WALL (      36 calls)
     potinit      :      0.18s CPU      0.14s WALL (       1 calls)

     Called by electrons:
     c_bands      :     68.08s CPU     35.82s WALL (      10 calls)
     sum_band     :      8.33s CPU      4.37s WALL (      10 calls)
     v_of_rho     :      0.04s CPU      0.02s WALL (      10 calls)
     v_h          :      0.02s CPU      0.01s WALL (      10 calls)
     v_xc         :      0.02s CPU      0.01s WALL (      11 calls)
     mix_rho      :      0.07s CPU      0.04s WALL (      10 calls)

     Called by c_bands:
     init_us_2    :      0.34s CPU      0.23s WALL (     792 calls)
     cegterg      :     66.89s CPU     35.11s WALL (     360 calls)

     Called by sum_band:

     Called by *egterg:
     h_psi        :     39.68s CPU     20.84s WALL (    1517 calls)
     g_psi        :      0.48s CPU      0.17s WALL (    1121 calls)
     cdiaghg      :     17.86s CPU      9.38s WALL (    1445 calls)
     cegterg:over :      3.16s CPU      1.69s WALL (    1121 calls)
     cegterg:upda :      3.15s CPU      1.72s WALL (    1121 calls)
     cegterg:last :      1.18s CPU      0.61s WALL (     396 calls)
     cdiaghg:chol :      0.62s CPU      0.32s WALL (    1445 calls)
     cdiaghg:inve :      0.20s CPU      0.09s WALL (    1445 calls)
     cdiaghg:para :      0.97s CPU      0.51s WALL (    2890 calls)

     Called by h_psi:
     h_psi:pot    :     39.06s CPU     20.60s WALL (    1517 calls)
     h_psi:calbec :      0.96s CPU      0.47s WALL (    1517 calls)
     vloc_psi     :     37.72s CPU     19.80s WALL (    1517 calls)
     add_vuspsi   :      0.34s CPU      0.31s WALL (    1517 calls)

     General routines
     calbec       :      1.05s CPU      0.50s WALL (    1661 calls)
     fft          :      0.10s CPU      0.07s WALL (      45 calls)
     fftw         :     41.43s CPU     21.59s WALL (   67142 calls)
 
     Parallel routines
     fft_scatt_xy :      9.76s CPU      2.37s WALL (   67187 calls)
     fft_scatt_yz :     16.73s CPU      7.91s WALL (   67187 calls)
 
     PWSCF        :  1m24.71s CPU     0m57.44s WALL

 
   This run was terminated on:  21:20:52  27Jul2018            

=------------------------------------------------------------------------------=
   JOB DONE.
=------------------------------------------------------------------------------=
