
     Program PWSCF v.6.2 starts on 27Jul2018 at 20: 8:19 

     This program is part of the open-source Quantum ESPRESSO suite
     for quantum simulation of materials; please cite
         "P. Giannozzi et al., J. Phys.:Condens. Matter 21 395502 (2009);
         "P. Giannozzi et al., J. Phys.:Condens. Matter 29 465901 (2017);
          URL http://www.quantum-espresso.org", 
     in publications or presentations arising from this work. More details at
     http://www.quantum-espresso.org/quote

     Parallel version (MPI & OpenMP), running on      64 processor cores
     Number of MPI processes:                32
     Threads/MPI process:                     2

     MPI processes distributed on     1 nodes
     R & G space division:  proc/nbgrp/npool/nimage =      32
     Waiting for input...
     Reading input from standard input

     Current dimensions of program PWSCF are:
     Max number of different atomic species (ntypx) = 20
     Max number of k-points (npk) =  40000
     Max angular momentum in pseudopotentials (lmaxx) =  3

     Subspace diagonalization in iterative solution of the eigenvalue problem:
     one sub-group per band group will be used
     scalapack distributed-memory algorithm (size of sub-group:  4*  4 procs)

 
     Parallelization info
     --------------------
     sticks:   dense  smooth     PW     G-vecs:    dense   smooth      PW
     Min          50      50     14                 9030     9030    1348
     Max          51      51     15                 9065     9065    1361
     Sum        1617    1617    463               289415   289415   43299
 


     bravais-lattice index     =            0
     lattice parameter (alat)  =       6.2737  a.u.
     unit-cell volume          =    2142.8622 (a.u.)^3
     number of atoms/cell      =            4
     number of atomic types    =            1
     number of electrons       =        20.00
     number of Kohn-Sham states=           14
     kinetic-energy cutoff     =     100.0000  Ry
     charge density cutoff     =     400.0000  Ry
     convergence threshold     =      1.0E-09
     mixing beta               =       0.7000
     number of iterations used =            8  plain     mixing
     Exchange-correlation      = PZ ( 1  1  0  0 0 0)

     celldm(1)=   6.273702  celldm(2)=   0.000000  celldm(3)=   0.000000
     celldm(4)=   0.000000  celldm(5)=   0.000000  celldm(6)=   0.000000

     crystal axes: (cart. coord. in units of alat)
               a(1) = (   1.000000   0.000000   0.000000 )  
               a(2) = (   0.000000   1.299858   0.000000 )  
               a(3) = (   0.000000   0.000000   6.676157 )  

     reciprocal axes: (cart. coord. in units 2 pi/alat)
               b(1) = (  1.000000  0.000000  0.000000 )  
               b(2) = (  0.000000  0.769315  0.000000 )  
               b(3) = (  0.000000  0.000000  0.149787 )  


     PseudoPot. # 1 for P  read from file:
     ./P.UPF
     MD5 check sum: 9e9c0d5cfb0fc50679b9fd28a02c9e05
     Pseudo is Norm-conserving + core correction, Zval =  5.0
     Generated using "atomic" code by A. Dal Corso v.6.0 svn rev. 13079
     Using radial grid of 1147 points,  2 beta functions with: 
                l(1) =   0
                l(2) =   1

     atomic species   valence    mass     pseudopotential
       P               5.00    30.97400     P ( 1.00)

      4 Sym. Ops. (no inversion) found ( 2 have fractional translation)


                                    s                        frac. trans.

      isym =  1     identity                                     

 cryst.   s( 1) = (     1          0          0      )
                  (     0          1          0      )
                  (     0          0          1      )

 cart.    s( 1) = (  1.0000000  0.0000000  0.0000000 )
                  (  0.0000000  1.0000000  0.0000000 )
                  (  0.0000000  0.0000000  1.0000000 )


      isym =  2     180 deg rotation - cart. axis [0,0,1]        

 cryst.   s( 2) = (    -1          0          0      )    f =(  0.5000000 )
                  (     0         -1          0      )       (  0.4999999 )
                  (     0          0          1      )       (  0.0000000 )

 cart.    s( 2) = ( -1.0000000  0.0000000  0.0000000 )    f =(  0.5000000 )
                  (  0.0000000 -1.0000000  0.0000000 )       (  0.6499291 )
                  (  0.0000000  0.0000000  1.0000000 )       (  0.0000000 )


      isym =  3     inv. 180 deg rotation - cart. axis [0,1,0]   

 cryst.   s( 3) = (     1          0          0      )    f =(  0.5000000 )
                  (     0         -1          0      )       (  0.4999999 )
                  (     0          0          1      )       (  0.0000000 )

 cart.    s( 3) = (  1.0000000  0.0000000  0.0000000 )    f =(  0.5000000 )
                  (  0.0000000 -1.0000000  0.0000000 )       (  0.6499291 )
                  (  0.0000000  0.0000000  1.0000000 )       (  0.0000000 )


      isym =  4     inv. 180 deg rotation - cart. axis [1,0,0]   

 cryst.   s( 4) = (    -1          0          0      )
                  (     0          1          0      )
                  (     0          0          1      )

 cart.    s( 4) = ( -1.0000000  0.0000000  0.0000000 )
                  (  0.0000000  1.0000000  0.0000000 )
                  (  0.0000000  0.0000000  1.0000000 )


   Cartesian axes

     site n.     atom                  positions (alat units)
         1          P    tau(   1) = (   0.5000000   0.5432110   1.2355230  )
         2          P    tau(   2) = (   0.5000000   0.7566476   1.8874023  )
         3          P    tau(   3) = (   0.0000000   1.1931401   1.8874023  )
         4          P    tau(   4) = (   0.0000000   0.1067183   1.2355230  )

   Crystallographic axes

     site n.     atom                  positions (cryst. coord.)
         1          P    tau(   1) = (  0.5000000  0.4179001  0.1850650  )
         2          P    tau(   2) = (  0.5000000  0.5821000  0.2827079  )
         3          P    tau(   3) = (  0.0000000  0.9179000  0.2827079  )
         4          P    tau(   4) = (  0.0000000  0.0821000  0.1850650  )

     number of k points=    35  gaussian smearing, width (Ry)=  0.0010
                       cart. coord. in units 2pi/alat
        k(    1) = (   0.0000000   0.0000000   0.0000000), wk =   0.0185185
        k(    2) = (   0.0000000   0.0854794   0.0000000), wk =   0.0370370
        k(    3) = (   0.0000000   0.1709588   0.0000000), wk =   0.0370370
        k(    4) = (   0.0000000   0.2564382   0.0000000), wk =   0.0370370
        k(    5) = (   0.0000000   0.3419176   0.0000000), wk =   0.0370370
        k(    6) = (   0.0833333   0.0000000   0.0000000), wk =   0.0370370
        k(    7) = (   0.0833333   0.0854794   0.0000000), wk =   0.0740741
        k(    8) = (   0.0833333   0.1709588   0.0000000), wk =   0.0740741
        k(    9) = (   0.0833333   0.2564382   0.0000000), wk =   0.0740741
        k(   10) = (   0.0833333   0.3419176   0.0000000), wk =   0.0740741
        k(   11) = (   0.1666667   0.0000000   0.0000000), wk =   0.0370370
        k(   12) = (   0.1666667   0.0854794   0.0000000), wk =   0.0740741
        k(   13) = (   0.1666667   0.1709588   0.0000000), wk =   0.0740741
        k(   14) = (   0.1666667   0.2564382   0.0000000), wk =   0.0740741
        k(   15) = (   0.1666667   0.3419176   0.0000000), wk =   0.0740741
        k(   16) = (   0.2500000   0.0000000   0.0000000), wk =   0.0370370
        k(   17) = (   0.2500000   0.0854794   0.0000000), wk =   0.0740741
        k(   18) = (   0.2500000   0.1709588   0.0000000), wk =   0.0740741
        k(   19) = (   0.2500000   0.2564382   0.0000000), wk =   0.0740741
        k(   20) = (   0.2500000   0.3419176   0.0000000), wk =   0.0740741
        k(   21) = (   0.3333333   0.0000000   0.0000000), wk =   0.0370370
        k(   22) = (   0.3333333   0.0854794   0.0000000), wk =   0.0740741
        k(   23) = (   0.3333333   0.1709588   0.0000000), wk =   0.0740741
        k(   24) = (   0.3333333   0.2564382   0.0000000), wk =   0.0740741
        k(   25) = (   0.3333333   0.3419176   0.0000000), wk =   0.0740741
        k(   26) = (   0.4166667   0.0000000   0.0000000), wk =   0.0370370
        k(   27) = (   0.4166667   0.0854794   0.0000000), wk =   0.0740741
        k(   28) = (   0.4166667   0.1709588   0.0000000), wk =   0.0740741
        k(   29) = (   0.4166667   0.2564382   0.0000000), wk =   0.0740741
        k(   30) = (   0.4166667   0.3419176   0.0000000), wk =   0.0740741
        k(   31) = (  -0.5000000   0.0000000   0.0000000), wk =   0.0185185
        k(   32) = (  -0.5000000   0.0854794   0.0000000), wk =   0.0370370
        k(   33) = (  -0.5000000   0.1709588   0.0000000), wk =   0.0370370
        k(   34) = (  -0.5000000   0.2564382   0.0000000), wk =   0.0370370
        k(   35) = (  -0.5000000   0.3419176   0.0000000), wk =   0.0370370

                       cryst. coord.
        k(    1) = (   0.0000000   0.0000000   0.0000000), wk =   0.0185185
        k(    2) = (   0.0000000   0.1111111   0.0000000), wk =   0.0370370
        k(    3) = (   0.0000000   0.2222222   0.0000000), wk =   0.0370370
        k(    4) = (   0.0000000   0.3333333   0.0000000), wk =   0.0370370
        k(    5) = (   0.0000000   0.4444444   0.0000000), wk =   0.0370370
        k(    6) = (   0.0833333   0.0000000   0.0000000), wk =   0.0370370
        k(    7) = (   0.0833333   0.1111111   0.0000000), wk =   0.0740741
        k(    8) = (   0.0833333   0.2222222   0.0000000), wk =   0.0740741
        k(    9) = (   0.0833333   0.3333333   0.0000000), wk =   0.0740741
        k(   10) = (   0.0833333   0.4444444   0.0000000), wk =   0.0740741
        k(   11) = (   0.1666667   0.0000000   0.0000000), wk =   0.0370370
        k(   12) = (   0.1666667   0.1111111   0.0000000), wk =   0.0740741
        k(   13) = (   0.1666667   0.2222222   0.0000000), wk =   0.0740741
        k(   14) = (   0.1666667   0.3333333   0.0000000), wk =   0.0740741
        k(   15) = (   0.1666667   0.4444444   0.0000000), wk =   0.0740741
        k(   16) = (   0.2500000   0.0000000   0.0000000), wk =   0.0370370
        k(   17) = (   0.2500000   0.1111111   0.0000000), wk =   0.0740741
        k(   18) = (   0.2500000   0.2222222   0.0000000), wk =   0.0740741
        k(   19) = (   0.2500000   0.3333333   0.0000000), wk =   0.0740741
        k(   20) = (   0.2500000   0.4444444   0.0000000), wk =   0.0740741
        k(   21) = (   0.3333333   0.0000000   0.0000000), wk =   0.0370370
        k(   22) = (   0.3333333   0.1111111   0.0000000), wk =   0.0740741
        k(   23) = (   0.3333333   0.2222222   0.0000000), wk =   0.0740741
        k(   24) = (   0.3333333   0.3333333   0.0000000), wk =   0.0740741
        k(   25) = (   0.3333333   0.4444444   0.0000000), wk =   0.0740741
        k(   26) = (   0.4166667   0.0000000   0.0000000), wk =   0.0370370
        k(   27) = (   0.4166667   0.1111111   0.0000000), wk =   0.0740741
        k(   28) = (   0.4166667   0.2222222   0.0000000), wk =   0.0740741
        k(   29) = (   0.4166667   0.3333333   0.0000000), wk =   0.0740741
        k(   30) = (   0.4166667   0.4444444   0.0000000), wk =   0.0740741
        k(   31) = (  -0.5000000   0.0000000   0.0000000), wk =   0.0185185
        k(   32) = (  -0.5000000   0.1111111   0.0000000), wk =   0.0370370
        k(   33) = (  -0.5000000   0.2222222   0.0000000), wk =   0.0370370
        k(   34) = (  -0.5000000   0.3333333   0.0000000), wk =   0.0370370
        k(   35) = (  -0.5000000   0.4444444   0.0000000), wk =   0.0370370

     Dense  grid:   289415 G-vectors     FFT dimensions: (  40,  54, 270)

     Dynamical RAM for                 wfc:       0.24 MB

     Dynamical RAM for     wfc (w. buffer):       8.69 MB

     Dynamical RAM for           str. fact:       0.14 MB

     Dynamical RAM for           local pot:       0.00 MB

     Dynamical RAM for          nlocal pot:       0.28 MB

     Dynamical RAM for                qrad:       0.14 MB

     Dynamical RAM for          rho,v,vnew:       0.86 MB

     Dynamical RAM for               rhoin:       0.29 MB

     Dynamical RAM for            rho*nmix:       2.21 MB

     Dynamical RAM for           G-vectors:       0.59 MB

     Dynamical RAM for          h,s,v(r/c):       0.01 MB

     Dynamical RAM for          <psi|beta>:       0.00 MB

     Dynamical RAM for                 psi:       0.97 MB

     Dynamical RAM for                hpsi:       0.97 MB

     Dynamical RAM for      wfcinit/wfcrot:       0.56 MB

     Estimated static dynamical RAM per process >      14.20 MB

     Estimated max dynamical RAM per process >      16.15 MB

     Estimated total dynamical RAM >     516.67 MB

     Check: negative/imaginary core charge=   -0.000001    0.000000

     Initial potential from superposition of free atoms

     starting charge   19.99943, renormalised to   20.00000

     negative rho (up, down):  3.725E-06 0.000E+00
     Starting wfc are   16 randomized atomic wfcs

     total cpu time spent up to now is        1.3 secs

     Self-consistent Calculation

     iteration #  1     ecut=   100.00 Ry     beta= 0.70
     Davidson diagonalization with overlap
     ethr =  1.00E-02,  avg # of iterations =  3.1

     Threshold (ethr) on eigenvalues was too large:
     Diagonalizing with lowered threshold

     Davidson diagonalization with overlap
     ethr =  3.43E-04,  avg # of iterations =  2.5

     total cpu time spent up to now is        5.0 secs

     total energy              =     -87.09308209 Ry
     Harris-Foulkes estimate   =     -87.11815970 Ry
     estimated scf accuracy    <       0.06608040 Ry

     iteration #  2     ecut=   100.00 Ry     beta= 0.70
     Davidson diagonalization with overlap
     ethr =  3.30E-04,  avg # of iterations =  2.0

     total cpu time spent up to now is        6.5 secs

     total energy              =     -87.09602855 Ry
     Harris-Foulkes estimate   =     -87.09921505 Ry
     estimated scf accuracy    <       0.00563030 Ry

     iteration #  3     ecut=   100.00 Ry     beta= 0.70
     Davidson diagonalization with overlap
     ethr =  2.82E-05,  avg # of iterations =  3.1

     total cpu time spent up to now is        8.6 secs

     total energy              =     -87.09666314 Ry
     Harris-Foulkes estimate   =     -87.09872930 Ry
     estimated scf accuracy    <       0.00391067 Ry

     iteration #  4     ecut=   100.00 Ry     beta= 0.70
     Davidson diagonalization with overlap
     ethr =  1.96E-05,  avg # of iterations =  2.1

     total cpu time spent up to now is       10.3 secs

     total energy              =     -87.09762047 Ry
     Harris-Foulkes estimate   =     -87.09767749 Ry
     estimated scf accuracy    <       0.00012251 Ry

     iteration #  5     ecut=   100.00 Ry     beta= 0.70
     Davidson diagonalization with overlap
     ethr =  6.13E-07,  avg # of iterations =  2.4

     total cpu time spent up to now is       12.1 secs

     total energy              =     -87.09764584 Ry
     Harris-Foulkes estimate   =     -87.09765392 Ry
     estimated scf accuracy    <       0.00001891 Ry

     iteration #  6     ecut=   100.00 Ry     beta= 0.70
     Davidson diagonalization with overlap
     ethr =  9.45E-08,  avg # of iterations =  2.3

     total cpu time spent up to now is       13.6 secs

     total energy              =     -87.09764956 Ry
     Harris-Foulkes estimate   =     -87.09765340 Ry
     estimated scf accuracy    <       0.00001440 Ry

     iteration #  7     ecut=   100.00 Ry     beta= 0.70
     Davidson diagonalization with overlap
     ethr =  7.20E-08,  avg # of iterations =  2.0

     total cpu time spent up to now is       15.1 secs

     total energy              =     -87.09765146 Ry
     Harris-Foulkes estimate   =     -87.09765148 Ry
     estimated scf accuracy    <       0.00000008 Ry

     iteration #  8     ecut=   100.00 Ry     beta= 0.70
     Davidson diagonalization with overlap
     ethr =  4.08E-10,  avg # of iterations =  3.1

     total cpu time spent up to now is       17.2 secs

     total energy              =     -87.09765151 Ry
     Harris-Foulkes estimate   =     -87.09765152 Ry
     estimated scf accuracy    <       0.00000001 Ry

     iteration #  9     ecut=   100.00 Ry     beta= 0.70
     Davidson diagonalization with overlap
     ethr =  5.34E-11,  avg # of iterations =  2.0

     total cpu time spent up to now is       18.7 secs

     total energy              =     -87.09765151 Ry
     Harris-Foulkes estimate   =     -87.09765151 Ry
     estimated scf accuracy    <          1.2E-09 Ry

     iteration # 10     ecut=   100.00 Ry     beta= 0.70
     Davidson diagonalization with overlap
     ethr =  6.08E-12,  avg # of iterations =  2.5

     total cpu time spent up to now is       20.5 secs

     End of self-consistent calculation

          k = 0.0000 0.0000 0.0000 ( 36111 PWs)   bands (ev):

   -17.3825 -14.8530 -10.8172  -8.0211  -6.8225  -6.5696  -5.8933  -4.2694
    -4.1540  -2.0478  -1.7525  -0.9307   0.2291   1.4732

     occupation numbers 
     1.0000   1.0000   1.0000   1.0000   1.0000   1.0000   1.0000   1.0000
     1.0000   1.0000   0.0000   0.0000   0.0000   0.0000

          k = 0.0000 0.0855 0.0000 ( 36110 PWs)   bands (ev):

   -17.3118 -14.9013 -10.9780  -8.2989  -6.6186  -6.4652  -5.8385  -4.2953
    -3.7074  -2.6652  -1.2024  -0.8793   0.1106   1.3260

     occupation numbers 
     1.0000   1.0000   1.0000   1.0000   1.0000   1.0000   1.0000   1.0000
     1.0000   1.0000   0.0000   0.0000   0.0000   0.0000

          k = 0.0000 0.1710 0.0000 ( 36124 PWs)   bands (ev):

   -17.1035 -15.0736 -11.2340  -8.9935  -6.5110  -5.6793  -5.6091  -4.3851
    -3.4657  -2.8261  -0.7614  -0.4854  -0.2401   1.0460

     occupation numbers 
     1.0000   1.0000   1.0000   1.0000   1.0000   1.0000   1.0000   1.0000
     1.0000   1.0000   0.0000   0.0000   0.0000   0.0000

          k = 0.0000 0.2564 0.0000 ( 36114 PWs)   bands (ev):

   -16.7704 -15.4050 -11.2808  -9.7911  -6.1800  -5.4330  -4.6096  -4.5608
    -4.2220  -2.2175  -0.5867  -0.5343   0.2465   0.8852

     occupation numbers 
     1.0000   1.0000   1.0000   1.0000   1.0000   1.0000   1.0000   1.0000
     1.0000   1.0000   0.0000   0.0000   0.0000   0.0000

          k = 0.0000 0.3419 0.0000 ( 36134 PWs)   bands (ev):

   -16.3389 -15.8574 -11.0224 -10.5004  -5.6784  -5.1314  -5.0435  -4.8222
    -3.4811  -2.5794  -0.4443  -0.3579   0.9291   0.9772

     occupation numbers 
     1.0000   1.0000   1.0000   1.0000   1.0000   1.0000   1.0000   1.0000
     1.0000   1.0000   0.0000   0.0000   0.0000   0.0000

          k = 0.0833 0.0000 0.0000 ( 36084 PWs)   bands (ev):

   -17.2996 -14.7677 -10.8892  -7.9540  -6.7484  -6.7119  -6.3069  -4.6500
    -4.1087  -2.0553  -1.6737  -0.2875   0.8748   0.9858

     occupation numbers 
     1.0000   1.0000   1.0000   1.0000   1.0000   1.0000   1.0000   1.0000
     1.0000   1.0000   0.0000   0.0000   0.0000   0.0000

          k = 0.0833 0.0855 0.0000 ( 36129 PWs)   bands (ev):

   -17.2291 -14.8169 -11.0243  -8.2517  -6.6844  -6.6791  -5.9804  -4.7830
    -3.6488  -2.6397  -1.1672  -0.2279   0.6132   1.0240

     occupation numbers 
     1.0000   1.0000   1.0000   1.0000   1.0000   1.0000   1.0000   1.0000
     1.0000   1.0000   0.0000   0.0000   0.0000   0.0000

          k = 0.0833 0.1710 0.0000 ( 36153 PWs)   bands (ev):

   -17.0214 -14.9916 -11.2390  -8.9557  -6.5031  -6.4948  -5.1704  -4.9502
    -3.4302  -2.8964  -0.5906  -0.0029   0.3071   0.9183

     occupation numbers 
     1.0000   1.0000   1.0000   1.0000   1.0000   1.0000   1.0000   1.0000
     1.0000   1.0000   0.0000   0.0000   0.0000   0.0000

          k = 0.0833 0.2564 0.0000 ( 36149 PWs)   bands (ev):

   -16.6893 -15.3252 -11.2574  -9.7499  -6.2137  -6.1439  -5.1796  -4.3385
    -4.0669  -2.4476  -0.1700   0.1603   0.4205   0.8662

     occupation numbers 
     1.0000   1.0000   1.0000   1.0000   1.0000   1.0000   1.0000   1.0000
     1.0000   1.0000   0.0000   0.0000   0.0000   0.0000

          k = 0.0833 0.3419 0.0000 ( 36124 PWs)   bands (ev):

   -16.2589 -15.7781 -10.9846 -10.4577  -5.8654  -5.6369  -5.4937  -4.9928
    -3.2233  -2.5823   0.0203   0.0447   0.7625   0.9866

     occupation numbers 
     1.0000   1.0000   1.0000   1.0000   1.0000   1.0000   1.0000   1.0000
     1.0000   1.0000   0.0000   0.0000   0.0000   0.0000

          k = 0.1667 0.0000 0.0000 ( 36170 PWs)   bands (ev):

   -17.0518 -14.5122 -11.1688  -7.7581  -7.3379  -7.0059  -6.5293  -5.0722
    -3.9968  -2.2272  -1.4394   0.0357   1.2654   1.8751

     occupation numbers 
     1.0000   1.0000   1.0000   1.0000   1.0000   1.0000   1.0000   1.0000
     1.0000   1.0000   0.0000   0.0000   0.0000   0.0000

          k = 0.1667 0.0855 0.0000 ( 36172 PWs)   bands (ev):

   -16.9819 -14.5649 -11.2302  -8.1801  -7.3152  -7.0669  -5.8971  -5.3396
    -3.6405  -2.6531  -1.0716  -0.0312   1.2772   2.0214

     occupation numbers 
     1.0000   1.0000   1.0000   1.0000   1.0000   1.0000   1.0000   1.0000
     1.0000   1.0000   0.0000   0.0000   0.0000   0.0000

          k = 0.1667 0.1710 0.0000 ( 36183 PWs)   bands (ev):

   -16.7762 -14.7483 -11.3120  -8.8982  -7.4558  -6.7186  -5.6882  -4.9173
    -3.3569  -3.2316  -0.4879   0.2067   0.9433   1.7243

     occupation numbers 
     1.0000   1.0000   1.0000   1.0000   1.0000   1.0000   1.0000   1.0000
     1.0000   1.0000   0.0000   0.0000   0.0000   0.0000

          k = 0.1667 0.2564 0.0000 ( 36199 PWs)   bands (ev):

   -16.4473 -15.0892 -11.2313  -9.6674  -7.3389  -6.4988  -5.8339  -4.2776
    -3.7939  -3.0942   0.1451   0.4394   0.9023   1.6997

     occupation numbers 
     1.0000   1.0000   1.0000   1.0000   1.0000   1.0000   1.0000   1.0000
     1.0000   1.0000   0.0000   0.0000   0.0000   0.0000

          k = 0.1667 0.3419 0.0000 ( 36178 PWs)   bands (ev):

   -16.0208 -15.5431 -10.9070 -10.3648  -7.0549  -6.7070  -5.4815  -4.8843
    -3.2738  -3.0842   0.3841   0.8057   0.8262   1.4223

     occupation numbers 
     1.0000   1.0000   1.0000   1.0000   1.0000   1.0000   1.0000   1.0000
     1.0000   1.0000   0.0000   0.0000   0.0000   0.0000

          k = 0.2500 0.0000 0.0000 ( 36142 PWs)   bands (ev):

   -16.6420 -14.0882 -11.7636  -8.4325  -7.4531  -7.3986  -6.1773  -5.0616
    -3.9140  -2.6138  -1.0582  -0.8087   1.0523   1.4549

     occupation numbers 
     1.0000   1.0000   1.0000   1.0000   1.0000   1.0000   1.0000   1.0000
     1.0000   1.0000   0.0000   0.0000   0.0000   0.0000

          k = 0.2500 0.0855 0.0000 ( 36173 PWs)   bands (ev):

   -16.5735 -14.1503 -11.7350  -8.6301  -7.7363  -7.3709  -5.6322  -5.3450
    -3.8097  -2.8344  -0.8551  -0.6139   0.8345   1.4990

     occupation numbers 
     1.0000   1.0000   1.0000   1.0000   1.0000   1.0000   1.0000   1.0000
     1.0000   1.0000   0.0000   0.0000   0.0000   0.0000

          k = 0.2500 0.1710 0.0000 ( 36209 PWs)   bands (ev):

   -16.3719 -14.3546 -11.6196  -9.1165  -8.0905  -7.2699  -5.7005  -4.7843
    -3.8349  -3.2916  -0.3834   0.1334   0.1446   2.3637

     occupation numbers 
     1.0000   1.0000   1.0000   1.0000   1.0000   1.0000   1.0000   1.0000
     1.0000   1.0000   0.0000   0.0000   0.0000   0.0000

          k = 0.2500 0.2564 0.0000 ( 36207 PWs)   bands (ev):

   -16.0497 -14.7094 -11.3621  -9.7422  -8.1692  -7.3775  -5.7153  -4.4697
    -3.8912  -3.5710  -0.0818   0.2702   1.1706   2.0140

     occupation numbers 
     1.0000   1.0000   1.0000   1.0000   1.0000   1.0000   1.0000   1.0000
     1.0000   1.0000   0.0000   0.0000   0.0000   0.0000

          k = 0.2500 0.3419 0.0000 ( 36227 PWs)   bands (ev):

   -15.6322 -15.1627 -10.9409 -10.3813  -8.0013  -7.6872  -5.3828  -4.8862
    -3.8026  -3.6370   0.3573   1.0527   1.0812   1.7435

     occupation numbers 
     1.0000   1.0000   1.0000   1.0000   1.0000   1.0000   1.0000   1.0000
     1.0000   1.0000   0.0000   0.0000   0.0000   0.0000

          k = 0.3333 0.0000 0.0000 ( 36194 PWs)   bands (ev):

   -16.0761 -13.4985 -12.6266  -9.6437  -7.3769  -7.0908  -5.7206  -4.8585
    -4.0294  -3.1809  -1.1741  -0.5714  -0.0174   0.5066

     occupation numbers 
     1.0000   1.0000   1.0000   1.0000   1.0000   1.0000   1.0000   1.0000
     1.0000   1.0000   0.0000   0.0000   0.0000   0.0000

          k = 0.3333 0.0855 0.0000 ( 36189 PWs)   bands (ev):

   -16.0102 -13.6006 -12.5118  -9.7128  -7.7119  -7.1230  -5.3262  -5.1605
    -4.1487  -3.2170  -0.6950  -0.5160  -0.0401   0.4061

     occupation numbers 
     1.0000   1.0000   1.0000   1.0000   1.0000   1.0000   1.0000   1.0000
     1.0000   1.0000   0.0000   0.0000   0.0000   0.0000

          k = 0.3333 0.1710 0.0000 ( 36197 PWs)   bands (ev):

   -15.8166 -13.8607 -12.2230  -9.9352  -8.1716  -7.2598  -5.6623  -4.8918
    -4.3226  -3.2527  -0.5786  -0.1735   0.4062   1.3451

     occupation numbers 
     1.0000   1.0000   1.0000   1.0000   1.0000   1.0000   1.0000   1.0000
     1.0000   1.0000   0.0000   0.0000   0.0000   0.0000

          k = 0.3333 0.2564 0.0000 ( 36232 PWs)   bands (ev):

   -15.5086 -14.2305 -11.8196 -10.3185  -8.3894  -7.5827  -5.8823  -4.9963
    -4.3098  -3.3720  -0.3187   0.3192   1.4726   1.6068

     occupation numbers 
     1.0000   1.0000   1.0000   1.0000   1.0000   1.0000   1.0000   1.0000
     1.0000   1.0000   0.0000   0.0000   0.0000   0.0000

          k = 0.3333 0.3419 0.0000 ( 36245 PWs)   bands (ev):

   -15.1118 -14.6670 -11.3353 -10.8125  -8.3136  -8.0015  -5.7361  -5.3785
    -4.0784  -3.7133   0.2795   0.9001   1.2134   2.0090

     occupation numbers 
     1.0000   1.0000   1.0000   1.0000   1.0000   1.0000   1.0000   1.0000
     1.0000   1.0000   0.0000   0.0000   0.0000   0.0000

          k = 0.4167 0.0000 0.0000 ( 36164 PWs)   bands (ev):

   -15.3641 -13.5892 -12.7481 -10.8012  -7.1017  -6.8047  -5.2240  -4.7085
    -4.2794  -3.7973  -0.9441  -0.7328  -0.5245   0.3265

     occupation numbers 
     1.0000   1.0000   1.0000   1.0000   1.0000   1.0000   1.0000   1.0000
     1.0000   1.0000   0.0000   0.0000   0.0000   0.0000

          k = 0.4167 0.0855 0.0000 ( 36179 PWs)   bands (ev):

   -15.3035 -13.6057 -12.7024 -10.8376  -7.3783  -6.8625  -5.2220  -5.1595
    -4.1743  -3.6232  -0.8508  -0.6709  -0.1249   0.1806

     occupation numbers 
     1.0000   1.0000   1.0000   1.0000   1.0000   1.0000   1.0000   1.0000
     1.0000   1.0000   0.0000   0.0000   0.0000   0.0000

          k = 0.4167 0.1710 0.0000 ( 36189 PWs)   bands (ev):

   -15.1272 -13.6836 -12.5551 -10.9648  -7.8230  -7.0042  -5.9931  -5.3097
    -4.1706  -3.3416  -0.8272   0.1894   0.2564   0.9299

     occupation numbers 
     1.0000   1.0000   1.0000   1.0000   1.0000   1.0000   1.0000   1.0000
     1.0000   1.0000   0.0000   0.0000   0.0000   0.0000

          k = 0.4167 0.2564 0.0000 ( 36255 PWs)   bands (ev):

   -14.8528 -13.8693 -12.2964 -11.2108  -8.0664  -7.2412  -6.5351  -5.7232
    -4.0760  -3.3618  -0.3120   0.5946   0.7142   1.7852

     occupation numbers 
     1.0000   1.0000   1.0000   1.0000   1.0000   1.0000   1.0000   1.0000
     1.0000   1.0000   0.0000   0.0000   0.0000   0.0000

          k = 0.4167 0.3419 0.0000 ( 36286 PWs)   bands (ev):

   -14.5139 -14.1636 -11.9469 -11.5601  -8.0045  -7.6714  -6.5293  -6.1907
    -3.8535  -3.5807   0.0014   0.3541   1.6792   2.4741

     occupation numbers 
     1.0000   1.0000   1.0000   1.0000   1.0000   1.0000   1.0000   1.0000
     1.0000   1.0000   0.0000   0.0000   0.0000   0.0000

          k =-0.5000 0.0000 0.0000 ( 36140 PWs)   bands (ev):

   -14.5239 -14.5239 -11.8445 -11.8445  -6.8156  -6.8156  -4.8264  -4.8264
    -4.2435  -4.2435  -0.8843  -0.8842  -0.3172  -0.3172

     occupation numbers 
     1.0000   1.0000   1.0000   1.0000   1.0000   1.0000   1.0000   1.0000
     1.0000   1.0000   0.0000   0.0000   0.0000   0.0000

          k =-0.5000 0.0855 0.0000 ( 36152 PWs)   bands (ev):

   -14.4768 -14.4768 -11.8602 -11.8602  -6.9728  -6.9728  -5.2454  -5.2454
    -3.9084  -3.9084  -1.0267  -1.0267   0.3861   0.3861

     occupation numbers 
     1.0000   1.0000   1.0000   1.0000   1.0000   1.0000   1.0000   1.0000
     1.0000   1.0000   0.0000   0.0000   0.0000   0.0000

          k =-0.5000 0.1710 0.0000 ( 36206 PWs)   bands (ev):

   -14.3472 -14.3472 -11.9175 -11.9175  -7.2791  -7.2791  -5.8402  -5.8402
    -3.7102  -3.7102  -0.4917  -0.4917   0.7293   0.7293

     occupation numbers 
     1.0000   1.0000   1.0000   1.0000   1.0000   1.0000   1.0000   1.0000
     1.0000   1.0000   0.0000   0.0000   0.0000   0.0000

          k =-0.5000 0.2564 0.0000 ( 36266 PWs)   bands (ev):

   -14.1760 -14.1760 -12.0225 -12.0225  -7.4554  -7.4554  -6.4538  -6.4538
    -3.6513  -3.6513   0.0460   0.0460   1.1638   1.1638

     occupation numbers 
     1.0000   1.0000   1.0000   1.0000   1.0000   1.0000   1.0000   1.0000
     1.0000   1.0000   0.0000   0.0000   0.0000   0.0000

          k =-0.5000 0.3419 0.0000 ( 36324 PWs)   bands (ev):

   -14.0441 -14.0441 -12.1222 -12.1222  -7.3663  -7.3663  -6.9894  -6.9894
    -3.6060  -3.6060  -0.0279  -0.0279   2.3079   2.3079

     occupation numbers 
     1.0000   1.0000   1.0000   1.0000   1.0000   1.0000   1.0000   1.0000
     1.0000   1.0000   0.0000   0.0000   0.0000   0.0000

     the Fermi energy is    -1.8542 ev

!    total energy              =     -87.09765151 Ry
     Harris-Foulkes estimate   =     -87.09765151 Ry
     estimated scf accuracy    <          1.4E-10 Ry

     The total energy is the sum of the following terms:

     one-electron contribution =    -437.84439544 Ry
     hartree contribution      =     222.10705910 Ry
     xc contribution           =     -48.74124430 Ry
     ewald contribution        =     177.38092913 Ry
     smearing contrib. (-TS)   =      -0.00000000 Ry

     convergence has been achieved in  10 iterations

     Forces acting on atoms (cartesian axes, Ry/au):

     atom    1 type  1   force =     0.00000000    0.00916569    0.01662420
     atom    2 type  1   force =     0.00000000   -0.00916425   -0.01662420
     atom    3 type  1   force =     0.00000000    0.00916425   -0.01662420
     atom    4 type  1   force =     0.00000000   -0.00916569    0.01662420
     The non-local contrib.  to forces
     atom    1 type  1   force =     0.00000000   -0.23852280    0.27581459
     atom    2 type  1   force =     0.00000000    0.23851939   -0.27582482
     atom    3 type  1   force =     0.00000000   -0.23851939   -0.27582482
     atom    4 type  1   force =     0.00000000    0.23852280    0.27581459
     The ionic contribution  to forces
     atom    1 type  1   force =    -0.00000000    1.39635482   -9.83417623
     atom    2 type  1   force =    -0.00000000   -1.39635602    9.83417623
     atom    3 type  1   force =     0.00000000    1.39635608    9.83417596
     atom    4 type  1   force =     0.00000000   -1.39635488   -9.83417596
     The local contribution  to forces
     atom    1 type  1   force =    -0.00000000   -1.16851112    9.59900133
     atom    2 type  1   force =    -0.00000000    1.16851425   -9.59896307
     atom    3 type  1   force =     0.00000000   -1.16851355   -9.59896289
     atom    4 type  1   force =     0.00000000    1.16851112    9.59900133
     The core correction contribution to forces
     atom    1 type  1   force =     0.00000000    0.01984745   -0.02400357
     atom    2 type  1   force =     0.00000000   -0.01984426    0.02400564
     atom    3 type  1   force =    -0.00000000    0.01984404    0.02400563
     atom    4 type  1   force =    -0.00000000   -0.01984745   -0.02400357
     The Hubbard contrib.    to forces
     atom    1 type  1   force =     0.00000000    0.00000000    0.00000000
     atom    2 type  1   force =     0.00000000    0.00000000    0.00000000
     atom    3 type  1   force =     0.00000000    0.00000000    0.00000000
     atom    4 type  1   force =     0.00000000    0.00000000    0.00000000
     The SCF correction term to forces
     atom    1 type  1   force =     0.00000000   -0.00000270   -0.00001146
     atom    2 type  1   force =     0.00000000    0.00000266   -0.00001753
     atom    3 type  1   force =    -0.00000000   -0.00000266   -0.00001753
     atom    4 type  1   force =    -0.00000000    0.00000270   -0.00001146

     Total force =     0.037966     Total SCF correction =     0.000030

     Writing output data file p.save
 
     init_run     :      1.60s CPU      0.99s WALL (       1 calls)
     electrons    :     36.58s CPU     19.26s WALL (       1 calls)
     forces       :      0.38s CPU      0.19s WALL (       1 calls)

     Called by init_run:
     wfcinit      :      1.11s CPU      0.62s WALL (       1 calls)
     wfcinit:atom :      0.02s CPU      0.01s WALL (      35 calls)
     wfcinit:wfcr :      0.98s CPU      0.55s WALL (      35 calls)
     potinit      :      0.11s CPU      0.06s WALL (       1 calls)

     Called by electrons:
     c_bands      :     32.10s CPU     16.86s WALL (      11 calls)
     sum_band     :      4.21s CPU      2.21s WALL (      11 calls)
     v_of_rho     :      0.04s CPU      0.02s WALL (      11 calls)
     v_h          :      0.02s CPU      0.01s WALL (      11 calls)
     v_xc         :      0.02s CPU      0.01s WALL (      12 calls)
     mix_rho      :      0.08s CPU      0.04s WALL (      11 calls)

     Called by c_bands:
     init_us_2    :      0.35s CPU      0.21s WALL (     840 calls)
     cegterg      :     31.08s CPU     16.30s WALL (     385 calls)

     Called by sum_band:

     Called by *egterg:
     h_psi        :     20.14s CPU     10.52s WALL (    1369 calls)
     g_psi        :      0.28s CPU      0.09s WALL (     949 calls)
     cdiaghg      :      7.70s CPU      3.91s WALL (    1299 calls)
     cegterg:over :      0.91s CPU      0.66s WALL (     949 calls)
     cegterg:upda :      1.39s CPU      0.78s WALL (     949 calls)
     cegterg:last :      0.31s CPU      0.21s WALL (     385 calls)
     cdiaghg:chol :      0.46s CPU      0.21s WALL (    1299 calls)
     cdiaghg:inve :      0.12s CPU      0.06s WALL (    1299 calls)
     cdiaghg:para :      0.62s CPU      0.29s WALL (    2598 calls)

     Called by h_psi:
     h_psi:pot    :     19.83s CPU     10.42s WALL (    1369 calls)
     h_psi:calbec :      0.57s CPU      0.34s WALL (    1369 calls)
     vloc_psi     :     19.08s CPU      9.93s WALL (    1369 calls)
     add_vuspsi   :      0.15s CPU      0.14s WALL (    1369 calls)

     General routines
     calbec       :      0.60s CPU      0.35s WALL (    1509 calls)
     fft          :      0.09s CPU      0.09s WALL (      49 calls)
     fftw         :     20.90s CPU     10.79s WALL (   33816 calls)
 
     Parallel routines
     fft_scatt_xy :      4.55s CPU      1.17s WALL (   33865 calls)
     fft_scatt_yz :      8.53s CPU      3.90s WALL (   33865 calls)
 
     PWSCF        :    40.22s CPU        22.10s WALL

 
   This run was terminated on:  20: 8:41  27Jul2018            

=------------------------------------------------------------------------------=
   JOB DONE.
=------------------------------------------------------------------------------=
