
     Program PWSCF v.6.0 (svn rev. 13079) starts on 16Jul2018 at 21:59: 0 

     This program is part of the open-source Quantum ESPRESSO suite
     for quantum simulation of materials; please cite
         "P. Giannozzi et al., J. Phys.:Condens. Matter 21 395502 (2009);
          URL http://www.quantum-espresso.org", 
     in publications or presentations arising from this work. More details at
     http://www.quantum-espresso.org/quote

     Serial version
     Waiting for input...
     Reading input from standard input
     Message from routine read_cards :
     DEPRECATED: no units specified in CELL_PARAMETERS card

     Current dimensions of program PWSCF are:
     Max number of different atomic species (ntypx) = 10
     Max number of k-points (npk) =  40000
     Max angular momentum in pseudopotentials (lmaxx) =  3
     Message from routine setup:
     the system is metallic, specify occupations
 
     G-vector sticks info
     --------------------
     sticks:   dense  smooth     PW     G-vecs:    dense   smooth      PW
     Sum       15793   15793   4149              1493013  1493013  200597
 


     bravais-lattice index     =            0
     lattice parameter (alat)  =       4.5000  a.u.
     unit-cell volume          =    3906.9844 (a.u.)^3
     number of atoms/cell      =            1
     number of atomic types    =            1
     number of electrons       =         7.00 (up:   6.00, down:   1.00)
     number of Kohn-Sham states=           25
     kinetic-energy cutoff     =     200.0000  Ry
     charge density cutoff     =     800.0000  Ry
     convergence threshold     =      5.0E-06
     mixing beta               =       0.7000
     number of iterations used =            4  local-TF  mixing
     Exchange-correlation      = PZ ( 1  1  0  0 0 0)

     celldm(1)=   4.500000  celldm(2)=   0.000000  celldm(3)=   0.000000
     celldm(4)=   0.000000  celldm(5)=   0.000000  celldm(6)=   0.000000

     crystal axes: (cart. coord. in units of alat)
               a(1) = (   3.500000   0.000000   0.000000 )  
               a(2) = (   0.000000   3.500000   0.000000 )  
               a(3) = (   0.000000   0.000000   3.500000 )  

     reciprocal axes: (cart. coord. in units 2 pi/alat)
               b(1) = (  0.285714  0.000000  0.000000 )  
               b(2) = (  0.000000  0.285714  0.000000 )  
               b(3) = (  0.000000  0.000000  0.285714 )  


     PseudoPot. # 1 for Mn read from file:
     ./Mn.UPF
     MD5 check sum: 628da22d8cc322bae34b14bc3cf108a8
     Pseudo is Norm-conserving + core correction, Zval =  7.0
     Generated using "atomic" code by A. Dal Corso  v.6.0 svn rev. 13079
     Using radial grid of 1187 points,  2 beta functions with: 
                l(1) =   1
                l(2) =   2

     atomic species   valence    mass     pseudopotential
        Mn             7.00    12.00000     Mn( 1.00)

     Starting magnetic structure 
     atomic species   magnetization
        Mn           0.000

     48 Sym. Ops., with inversion, found



   Cartesian axes

     site n.     atom                  positions (alat units)
         1           Mn  tau(   1) = (   1.7500000   1.7500000   1.7500000  )

     number of k points=     4
                       cart. coord. in units 2pi/alat
        k(    1) = (   0.0000000   0.0000000   0.0000000), wk =   0.1250000
        k(    2) = (   0.0000000   0.0000000  -0.1428571), wk =   0.3750000
        k(    3) = (   0.0000000  -0.1428571  -0.1428571), wk =   0.3750000
        k(    4) = (  -0.1428571  -0.1428571  -0.1428571), wk =   0.1250000

     Dense  grid:  1493013 G-vectors     FFT dimensions: ( 141, 141, 141)

     Estimated max dynamical RAM per process >    2288.50Mb
     Generating pointlists ...
     new r_m :   0.4125 (alat units)  1.8563 (a.u.) for type    1
dfftp%nnr =2803221
    141    141    141    141    141    141
SIZE(dfftp%isind) =   19881
bg(1:3,1):   0.2857  0.0000  0.0000
bg(1:3,2):   0.0000  0.2857  0.0000
bg(1:3,3):   0.0000  0.0000  0.2857
at(1:3,1):   3.5000  0.0000  0.0000
at(1:3,2):   0.0000  3.5000  0.0000
at(1:3,3):   0.0000  0.0000  3.5000
nt =     1 na =    1
tau(:,na) =    1.75000   1.75000   1.75000
  k    rho_core(k)
       1   0.00000E+00
       2   0.00000E+00
       3   0.00000E+00
       4   0.00000E+00
       5   0.00000E+00
       6   0.00000E+00
       7   0.00000E+00
       8   0.00000E+00
       9   0.00000E+00
      10   0.00000E+00
      11   0.00000E+00
      12   0.00000E+00
      13   0.00000E+00
      14   0.00000E+00
      15   0.00000E+00
      16   0.00000E+00
      17   0.00000E+00
      18   0.00000E+00
      19   0.00000E+00
      20   0.00000E+00
      21   0.00000E+00
      22   0.00000E+00
      23   0.00000E+00
      24   0.00000E+00
      25   0.00000E+00
      26   0.00000E+00
      27   0.00000E+00
      28   0.00000E+00
      29   0.00000E+00
      30   0.00000E+00
      31   0.00000E+00
      32   0.00000E+00
      33   0.00000E+00
      34   0.00000E+00
      35   0.00000E+00
      36   0.00000E+00
      37   0.00000E+00
      38   0.00000E+00
      39   0.00000E+00
      40   0.00000E+00
      41   0.00000E+00
      42   0.00000E+00
      43   0.00000E+00
      44   0.00000E+00
      45   0.00000E+00
      46   0.00000E+00
      47   0.00000E+00
      48   0.00000E+00
      49   0.00000E+00
      50   0.00000E+00
      51   0.00000E+00
      52   0.00000E+00
      53   0.00000E+00
      54   0.00000E+00
      55   0.00000E+00
      56   0.00000E+00
      57   0.00000E+00
      58   0.00000E+00
      59   0.00000E+00
      60   0.00000E+00
      61   0.00000E+00
      62   0.00000E+00
      63   0.00000E+00
      64   0.00000E+00
      65   0.00000E+00
      66   0.00000E+00
      67   0.00000E+00
      68   0.00000E+00
      69   0.00000E+00
      70   0.00000E+00
      71   0.00000E+00
      72   0.00000E+00
      73   0.00000E+00
      74   0.00000E+00
      75   0.00000E+00
      76   0.00000E+00
      77   0.00000E+00
      78   0.00000E+00
      79   0.00000E+00
      80   0.00000E+00
      81   0.00000E+00
      82   0.00000E+00
      83   0.00000E+00
      84   0.00000E+00
      85   0.00000E+00
      86   0.00000E+00
      87   0.00000E+00
      88   0.00000E+00
      89   0.00000E+00
      90   0.00000E+00
      91   0.00000E+00
      92   0.00000E+00
      93   0.00000E+00
      94   0.00000E+00
      95   0.00000E+00
      96   0.00000E+00
      97   0.00000E+00
      98   0.00000E+00
      99   0.00000E+00
     100   0.00000E+00
     101   0.00000E+00
     102   0.00000E+00
     103   0.00000E+00
     104   0.00000E+00
     105   0.00000E+00
     106   0.00000E+00
     107   0.00000E+00
     108   0.00000E+00
     109   0.00000E+00
     110   0.00000E+00
     111   0.00000E+00
     112   0.00000E+00
     113   0.00000E+00
     114   0.00000E+00
     115   0.00000E+00
     116   0.00000E+00
     117   0.00000E+00
     118   0.00000E+00
     119   0.00000E+00
     120   0.00000E+00
     121   0.00000E+00
     122   0.00000E+00
     123   0.00000E+00
     124   0.00000E+00
     125   0.00000E+00
     126   0.00000E+00
     127   0.00000E+00
     128   0.00000E+00
     129   0.00000E+00
     130   0.00000E+00
     131   0.00000E+00
     132   0.00000E+00
     133   0.00000E+00
     134   0.00000E+00
     135   0.00000E+00
     136   0.00000E+00
     137   0.00000E+00
     138   0.00000E+00
     139   0.00000E+00
     140   0.00000E+00
     141   0.00000E+00
     142   0.00000E+00
     143   0.00000E+00
     144   0.00000E+00
     145   0.00000E+00
     146   0.00000E+00
     147   0.00000E+00
     148   0.00000E+00
     149   0.00000E+00
     150   0.00000E+00
     151   0.00000E+00
     152   0.00000E+00
     153   0.00000E+00
     154   0.00000E+00
     155   0.00000E+00
     156   0.00000E+00
     157   0.00000E+00
     158   0.00000E+00
     159   0.00000E+00
     160   0.00000E+00
     161   0.00000E+00
     162   0.00000E+00
     163   0.00000E+00
     164   0.00000E+00
     165   0.00000E+00
     166   0.00000E+00
     167   0.00000E+00
     168   0.00000E+00
     169   0.00000E+00
     170   0.00000E+00
     171   0.00000E+00
     172   0.00000E+00
     173   0.00000E+00
     174   0.00000E+00
     175   0.00000E+00
     176   0.00000E+00
     177   0.00000E+00
     178   0.00000E+00
     179   0.00000E+00
     180   0.00000E+00
     181   0.00000E+00
     182   0.00000E+00
     183   0.00000E+00
     184   0.00000E+00
     185   0.00000E+00
     186   0.00000E+00
     187   0.00000E+00
     188   0.00000E+00
     189   0.00000E+00
     190   0.00000E+00
     191   0.00000E+00
     192   0.00000E+00
     193   0.00000E+00
     194   0.00000E+00
     195   0.00000E+00
     196   0.00000E+00
     197   0.00000E+00
     198   0.00000E+00
     199   0.00000E+00
     200   0.00000E+00
     201   0.00000E+00
     202   0.00000E+00
     203   0.00000E+00
     204   0.00000E+00
     205   0.00000E+00
     206   0.00000E+00
     207   0.00000E+00
     208   0.00000E+00
     209   0.00000E+00
     210   0.00000E+00
     211   0.00000E+00
     212   0.00000E+00
     213   0.00000E+00
     214   0.00000E+00
     215   0.00000E+00
     216   0.00000E+00
     217   0.00000E+00
     218   0.00000E+00
     219   0.00000E+00
     220   0.00000E+00
     221   0.00000E+00
     222   0.00000E+00
     223   0.00000E+00
     224   0.00000E+00
     225   0.00000E+00
     226   0.00000E+00
     227   0.00000E+00
     228   0.00000E+00
     229   0.00000E+00
     230   0.00000E+00
     231   0.00000E+00
     232   0.00000E+00
     233   0.00000E+00
     234   0.00000E+00
     235   0.00000E+00
     236   0.00000E+00
     237   0.00000E+00
     238   0.00000E+00
     239   0.00000E+00
     240   0.00000E+00
     241   0.00000E+00
     242   0.00000E+00
     243   0.00000E+00
     244   0.00000E+00
     245   0.00000E+00
     246   0.00000E+00
     247   0.00000E+00
     248   0.00000E+00
     249   0.00000E+00
     250   0.00000E+00
     251   0.00000E+00
     252   0.00000E+00
     253   0.00000E+00
     254   0.00000E+00
     255   0.00000E+00
     256   0.00000E+00
     257   0.00000E+00
     258   0.00000E+00
     259   0.00000E+00
     260   0.00000E+00
     261   0.00000E+00
     262   0.00000E+00
     263   0.00000E+00
     264   0.00000E+00
     265   0.00000E+00
     266   0.00000E+00
     267   0.00000E+00
     268   0.00000E+00
     269   0.00000E+00
     270   0.00000E+00
     271   0.00000E+00
     272   0.00000E+00
     273   0.00000E+00
     274   0.00000E+00
     275   0.00000E+00
     276   0.00000E+00
     277   0.00000E+00
     278   0.00000E+00
     279   0.00000E+00
     280   0.00000E+00
     281   0.00000E+00
     282   0.00000E+00
     283   0.00000E+00
     284   0.00000E+00
     285   0.00000E+00
     286   0.00000E+00
     287   0.00000E+00
     288   0.00000E+00
     289   0.00000E+00
     290   0.00000E+00
     291   0.00000E+00
     292   0.00000E+00
     293   0.00000E+00
     294   0.00000E+00
     295   0.00000E+00
     296   0.00000E+00
     297   0.00000E+00
     298   0.00000E+00
     299   0.00000E+00
     300   0.00000E+00
  ------------ 
  k    averhoc
           1  3.757963682661481E-015
           2  4.161291875396717E-015
           3  5.457541980952400E-015
           4  7.921877165351060E-015
           5  1.207827499691983E-014
           6  1.883075901742041E-014
           7  2.964122868718306E-014
           8  4.682644852078477E-014
           9  7.402821740285407E-014
          10  1.171656703058335E-013
          11  1.856117324058421E-013
          12  2.939248304707411E-013
          13  4.654658794103047E-013
          14  7.378018786387539E-013
          15  1.168397252793040E-012
          16  1.852199237250906E-012
          17  2.935174179719838E-012
          18  4.652807674714457E-012
          19  7.376521010059569E-012
          20  1.169616028966354E-011
          21  1.854375395023670E-011
          22  2.942472854144375E-011
          23  4.666078113379350E-011
          24  7.404337108806156E-011
          25  1.175148615705063E-010
          26  1.864609875774092E-010
          27  2.959847514727879E-010
          28  4.700498508926549E-010
          29  7.465905928173123E-010
          30  1.186073708652707E-009
          31  1.884317436083426E-009
          32  2.994847642355762E-009
          33  4.761114883566946E-009
          34  7.570593989926358E-009
          35  1.204083381568264E-008
          36  1.915874154259295E-008
          37  3.049649883634429E-008
          38  4.855600311575322E-008
          39  7.733627791000659E-008
          40  1.232467277805433E-007
          41  1.964685597769147E-007
          42  3.133663490222008E-007
          43  5.000821876435948E-007
          44  7.981563576733811E-007
          45  1.275030103271452E-006
          46  2.037288559546645E-006
          47  3.256725830637866E-006
          48  5.208930151687980E-006
          49  8.337002171288455E-006
          50  1.334616550614754E-005
          51  2.136956889071150E-005
          52  3.422165277140388E-005
          53  5.481145366086715E-005
          54  8.776441495698758E-005
          55  1.404209890869492E-004
          56  2.244044603197200E-004
          57  3.579072101569308E-004
          58  5.689872203460912E-004
          59  9.006540712907096E-004
          60  1.415931034038142E-003
          61  2.205093120847910E-003
          62  3.386559336745748E-003
          63  5.021260361935391E-003
          64  7.013476418628370E-003
          65  9.229031053602246E-003
          66  1.151842150544759E-002
          67  1.372599818210566E-002
          68  1.570312241165057E-002
          69  1.731614614790631E-002
          70  1.845658043297130E-002
          71  1.904676022102139E-002
          72  1.904676022102139E-002
          73  1.845658043297130E-002
          74  1.731614614790631E-002
          75  1.570312241165057E-002
          76  1.372599818210566E-002
          77  1.151842150544759E-002
          78  9.229031053602246E-003
          79  7.013476418628370E-003
          80  5.021260361935391E-003
          81  3.386559336745748E-003
          82  2.205093120847919E-003
          83  1.415931034038142E-003
          84  9.006540712907096E-004
          85  5.689872203460885E-004
          86  3.579072101569295E-004
          87  2.244044603197205E-004
          88  1.404209890869492E-004
          89  8.776441495698758E-005
          90  5.481145366086692E-005
          91  3.422165277140401E-005
          92  2.136956889071165E-005
          93  1.334616550614754E-005
          94  8.337002171288455E-006
          95  5.208930151687953E-006
          96  3.256725830637877E-006
          97  2.037288559546652E-006
          98  1.275030103271452E-006
          99  7.981563576733811E-007
         100  5.000821876435936E-007
         101  3.133663490222016E-007
         102  1.964685597769150E-007
         103  1.232467277805433E-007
         104  7.733627791000632E-008
         105  4.855600311575293E-008
         106  3.049649883634432E-008
         107  1.915874154259299E-008
         108  1.204083381568264E-008
         109  7.570593989926350E-009
         110  4.761114883566925E-009
         111  2.994847642355769E-009
         112  1.884317436083426E-009
         113  1.186073708652707E-009
         114  7.465905928173123E-010
         115  4.700498508926541E-010
         116  2.959847514727879E-010
         117  1.864609875774092E-010
         118  1.175148615705063E-010
         119  7.404337108806156E-011
         120  4.666078113379338E-011
         121  2.942472854144375E-011
         122  1.854375395023670E-011
         123  1.169616028966354E-011
         124  7.376521010059569E-012
         125  4.652807674714470E-012
         126  2.935174179719838E-012
         127  1.852199237250906E-012
         128  1.168397252793040E-012
         129  7.378018786387504E-013
         130  4.654658794103063E-013
         131  2.939248304707411E-013
         132  1.856117324058421E-013
         133  1.171656703058335E-013
         134  7.402821740285376E-014
         135  4.682644852078497E-014
         136  2.964122868718306E-014
         137  1.883075901742041E-014
         138  1.207827499691983E-014
         139  7.921877165351013E-015
         140  5.457541980952413E-015
         141  4.161291875396717E-015
  ------------ 
  k    rhog_core(k)
       1   0.17938E-02   0.00000E+00
       2  -0.17472E-02  -0.63216E-20
       3  -0.17472E-02   0.59506E-20
       4  -0.17472E-02   0.12248E-19
       5  -0.17472E-02  -0.41600E-19
       6  -0.17472E-02  -0.34425E-19
       7  -0.17472E-02  -0.33560E-19
       8   0.17019E-02   0.47858E-20
       9   0.17019E-02  -0.15535E-19
      10   0.17019E-02   0.43104E-19
      11   0.17019E-02   0.34343E-19
      12   0.17019E-02   0.55680E-20
      13   0.17019E-02   0.29505E-19
      14   0.17019E-02   0.27768E-19
      15   0.17019E-02   0.78915E-19
      16   0.17019E-02   0.23992E-19
      17   0.17019E-02   0.27409E-19
      18   0.17019E-02   0.68432E-19
      19   0.17019E-02   0.65508E-19
      20  -0.16577E-02  -0.17869E-19
      21  -0.16577E-02  -0.40487E-19
      22  -0.16577E-02  -0.65092E-19
      23  -0.16577E-02  -0.59998E-19
      24  -0.16577E-02  -0.22376E-19
      25  -0.16577E-02  -0.60582E-19
      26  -0.16577E-02  -0.75932E-19
      27  -0.16577E-02  -0.96528E-19
      28   0.16147E-02   0.77834E-19
      29   0.16147E-02   0.87148E-19
      30   0.16147E-02   0.67146E-19
      31   0.16147E-02  -0.25696E-19
      32   0.16147E-02  -0.26618E-19
      33   0.16147E-02  -0.30131E-19
      34  -0.15729E-02  -0.72013E-19
      35  -0.15729E-02  -0.11504E-18
      36  -0.15729E-02  -0.10137E-18
      37  -0.15729E-02  -0.10782E-18
      38  -0.15729E-02  -0.89755E-19
      39  -0.15729E-02  -0.11018E-18
      40  -0.15729E-02   0.49319E-19
      41  -0.15729E-02   0.26565E-19
      42  -0.15729E-02  -0.12259E-18
      43  -0.15729E-02  -0.11870E-18
      44  -0.15729E-02  -0.10214E-18
      45  -0.15729E-02   0.57282E-19
      46  -0.15729E-02  -0.81246E-19
      47  -0.15729E-02  -0.11885E-20
      48  -0.15729E-02  -0.17875E-19
      49  -0.15729E-02  -0.45988E-20
      50  -0.15729E-02  -0.11498E-18
      51  -0.15729E-02  -0.11604E-18
      52  -0.15729E-02   0.29199E-19
      53  -0.15729E-02   0.71491E-20
      54  -0.15729E-02   0.13160E-19
      55  -0.15729E-02  -0.12817E-19
      56  -0.15729E-02  -0.64150E-20
      57  -0.15729E-02  -0.15669E-20
      58   0.15322E-02   0.66285E-19
      59   0.15322E-02   0.10110E-18
      60   0.15322E-02   0.12571E-18
      61   0.15322E-02   0.13066E-18
      62   0.15322E-02   0.12572E-18
      63   0.15322E-02   0.11873E-18
      64   0.15322E-02   0.68500E-19
      65   0.15322E-02  -0.19139E-19
      66   0.15322E-02   0.14869E-18
      67   0.15322E-02  -0.50678E-20
      68   0.15322E-02   0.12490E-19
      69   0.15322E-02  -0.33395E-20
      70   0.15322E-02   0.13328E-18
      71   0.15322E-02   0.14398E-18
      72   0.15322E-02   0.11783E-18
      73   0.15322E-02  -0.53601E-20
      74   0.15322E-02   0.19548E-18
      75   0.15322E-02   0.13389E-19
      76   0.15322E-02  -0.20736E-19
      77   0.15322E-02   0.26721E-19
      78   0.15322E-02  -0.27652E-19
      79   0.15322E-02   0.16995E-19
      80   0.15322E-02   0.21256E-19
      81   0.15322E-02   0.25654E-19
      82   0.14540E-02   0.13853E-18
      83   0.14540E-02   0.12107E-18
      84   0.14540E-02   0.33910E-19
      85   0.14540E-02   0.44235E-19
      86   0.14540E-02   0.12318E-18
      87   0.14540E-02   0.51055E-19
      88   0.14540E-02   0.22299E-19
      89   0.14540E-02  -0.56320E-19
      90   0.14540E-02   0.48620E-19
      91   0.14540E-02   0.22107E-19
      92   0.14540E-02  -0.64246E-19
      93   0.14540E-02  -0.52329E-19
      94  -0.14164E-02   0.70903E-20
      95  -0.14164E-02  -0.17220E-18
      96  -0.14164E-02  -0.16277E-18
      97  -0.14164E-02  -0.15921E-18
      98  -0.14164E-02  -0.33920E-19
      99  -0.14164E-02  -0.20693E-18
     100  -0.14164E-02  -0.48475E-19
 1492913  -0.19144E-07  -0.32980E-20
 1492914  -0.19144E-07   0.31114E-21
 1492915  -0.19144E-07  -0.26841E-20
 1492916  -0.19144E-07  -0.53143E-20
 1492917  -0.19144E-07  -0.55786E-20
 1492918  -0.29538E-07   0.11689E-20
 1492919  -0.29538E-07   0.14953E-20
 1492920  -0.29538E-07  -0.12232E-20
 1492921  -0.29538E-07  -0.46627E-20
 1492922  -0.29538E-07  -0.10204E-20
 1492923  -0.29538E-07  -0.44808E-20
 1492924  -0.29538E-07  -0.12786E-20
 1492925  -0.29538E-07  -0.95473E-21
 1492926  -0.37245E-07  -0.49060E-21
 1492927  -0.37245E-07   0.44294E-21
 1492928  -0.37245E-07  -0.71779E-22
 1492929  -0.37245E-07  -0.31939E-21
 1492930  -0.37245E-07  -0.51131E-21
 1492931  -0.37245E-07  -0.74905E-21
 1492932  -0.37245E-07  -0.16332E-20
 1492933  -0.37245E-07  -0.68831E-21
 1492934  -0.26361E-07   0.27775E-21
 1492935  -0.26361E-07   0.21167E-20
 1492936  -0.26361E-07   0.43121E-21
 1492937  -0.26361E-07   0.11551E-20
 1492938  -0.26361E-07   0.16663E-20
 1492939  -0.26361E-07   0.23718E-20
 1492940  -0.26361E-07  -0.72360E-21
 1492941  -0.26361E-07   0.10979E-20
 1492942  -0.26361E-07  -0.40440E-20
 1492943  -0.26361E-07  -0.17820E-20
 1492944  -0.29538E-07  -0.23584E-20
 1492945  -0.29538E-07  -0.19507E-20
 1492946  -0.19144E-07  -0.72482E-22
 1492947  -0.19144E-07  -0.18160E-21
 1492948  -0.19144E-07   0.32963E-21
 1492949  -0.19144E-07   0.10996E-20
 1492950  -0.29538E-07  -0.40196E-20
 1492951  -0.29538E-07  -0.27038E-20
 1492952  -0.26361E-07  -0.19717E-20
 1492953  -0.26361E-07  -0.21958E-20
 1492954  -0.26361E-07  -0.88892E-21
 1492955  -0.26361E-07  -0.10985E-20
 1492956  -0.29538E-07  -0.35617E-20
 1492957  -0.29538E-07  -0.22423E-20
 1492958  -0.19144E-07  -0.73916E-21
 1492959  -0.19144E-07  -0.29035E-23
 1492960  -0.19144E-07   0.13613E-20
 1492961  -0.19144E-07   0.11978E-20
 1492962  -0.29538E-07  -0.69930E-21
 1492963  -0.29538E-07  -0.27959E-21
 1492964  -0.26361E-07  -0.47048E-20
 1492965  -0.26361E-07  -0.24285E-20
 1492966  -0.32961E-07   0.58308E-21
 1492967  -0.32961E-07   0.73530E-22
 1492968  -0.32961E-07   0.27924E-21
 1492969  -0.32961E-07  -0.10981E-20
 1492970  -0.32961E-07  -0.80096E-21
 1492971  -0.32961E-07  -0.21478E-20
 1492972  -0.32961E-07  -0.66638E-21
 1492973  -0.32961E-07  -0.11404E-20
 1492974  -0.16260E-07  -0.17145E-20
 1492975  -0.16260E-07  -0.23774E-20
 1492976  -0.17112E-07  -0.30912E-21
 1492977  -0.17112E-07   0.34052E-21
 1492978  -0.17112E-07  -0.40426E-21
 1492979  -0.17112E-07  -0.30848E-21
 1492980  -0.16260E-07  -0.11533E-20
 1492981  -0.16260E-07  -0.48386E-23
 1492982  -0.16260E-07  -0.28794E-20
 1492983  -0.16260E-07  -0.17390E-20
 1492984  -0.17112E-07   0.16241E-22
 1492985  -0.17112E-07   0.11629E-21
 1492986  -0.17112E-07  -0.39469E-21
 1492987  -0.17112E-07   0.25623E-21
 1492988  -0.16260E-07  -0.45401E-22
 1492989  -0.16260E-07  -0.71232E-21
 1492990  -0.43118E-07  -0.78215E-21
 1492991  -0.43118E-07  -0.98468E-21
 1492992  -0.43118E-07  -0.33247E-21
 1492993  -0.43118E-07   0.59852E-21
 1492994  -0.43118E-07  -0.11296E-21
 1492995  -0.43118E-07   0.79111E-21
 1492996  -0.43118E-07   0.41413E-21
 1492997  -0.43118E-07   0.19065E-21
 1492998  -0.60248E-08  -0.11501E-20
 1492999  -0.60248E-08  -0.11409E-20
 1493000  -0.35062E-08  -0.99710E-21
 1493001  -0.35062E-08  -0.98995E-21
 1493002  -0.35062E-08  -0.86813E-21
 1493003  -0.35062E-08  -0.79391E-21
 1493004  -0.60248E-08  -0.14716E-21
 1493005  -0.60248E-08  -0.35227E-22
 1493006  -0.60248E-08  -0.19415E-21
 1493007  -0.60248E-08  -0.10658E-21
 1493008  -0.35062E-08  -0.77243E-21
 1493009  -0.35062E-08  -0.71436E-21
 1493010  -0.35062E-08  -0.89185E-21
 1493011  -0.35062E-08  -0.90164E-21
 1493012  -0.60248E-08  -0.13300E-20
 1493013  -0.60248E-08  -0.13449E-20
  ------------ 

     Initial potential from superposition of free atoms

     starting charge    6.99960, renormalised to    7.00000

     negative rho (up, down):  1.487E-05 1.487E-05
     Starting wfc are    9 randomized atomic wfcs +   16 random wfc

     total cpu time spent up to now is      145.4 secs

     per-process dynamical memory:  1440.5 Mb

     Self-consistent Calculation

     iteration #  1     ecut=   200.00 Ry     beta=0.70
     Davidson diagonalization with overlap
     ethr =  1.00E-02,  avg # of iterations =  9.2

     negative rho (up, down):  0.000E+00 4.535E-05

     total cpu time spent up to now is      896.0 secs

     total energy              =     -40.07704137 Ry
     Harris-Foulkes estimate   =     -39.92862496 Ry
     estimated scf accuracy    <       0.67940315 Ry

     total magnetization       =     5.00 Bohr mag/cell
     absolute magnetization    =     5.00 Bohr mag/cell

     iteration #  2     ecut=   200.00 Ry     beta=0.70
     Davidson diagonalization with overlap
     ethr =  9.71E-03,  avg # of iterations =  1.0

     total cpu time spent up to now is     1148.2 secs

     total energy              =     -40.20922747 Ry
     Harris-Foulkes estimate   =     -40.18742346 Ry
     estimated scf accuracy    <       0.18119814 Ry

     total magnetization       =     5.00 Bohr mag/cell
     absolute magnetization    =     5.03 Bohr mag/cell

     iteration #  3     ecut=   200.00 Ry     beta=0.70
     Davidson diagonalization with overlap
     ethr =  2.59E-03,  avg # of iterations =  1.0

     negative rho (up, down):  4.073E-04 2.655E-02

     total cpu time spent up to now is     1397.8 secs

     total energy              =     -40.23211114 Ry
     Harris-Foulkes estimate   =     -40.21998422 Ry
     estimated scf accuracy    <       0.04141152 Ry

     total magnetization       =     5.00 Bohr mag/cell
     absolute magnetization    =     5.06 Bohr mag/cell

     iteration #  4     ecut=   200.00 Ry     beta=0.70
     Davidson diagonalization with overlap
     ethr =  5.92E-04,  avg # of iterations =  2.5

     negative rho (up, down):  2.935E-04 1.438E-04

     total cpu time spent up to now is     2080.0 secs

     total energy              =     -40.24020352 Ry
     Harris-Foulkes estimate   =     -40.24077310 Ry
     estimated scf accuracy    <       0.00135424 Ry

     total magnetization       =     5.00 Bohr mag/cell
     absolute magnetization    =     5.08 Bohr mag/cell

     iteration #  5     ecut=   200.00 Ry     beta=0.70
     Davidson diagonalization with overlap
     ethr =  1.93E-05,  avg # of iterations =  8.2

     negative rho (up, down):  2.134E-04 1.269E-04

     total cpu time spent up to now is     2875.2 secs

     total energy              =     -40.24049026 Ry
     Harris-Foulkes estimate   =     -40.24048713 Ry
     estimated scf accuracy    <       0.00004096 Ry

     total magnetization       =     5.00 Bohr mag/cell
     absolute magnetization    =     5.08 Bohr mag/cell

     iteration #  6     ecut=   200.00 Ry     beta=0.70
     Davidson diagonalization with overlap
     ethr =  5.85E-07,  avg # of iterations =  5.9

     negative rho (up, down):  6.190E-05 3.003E-05

     total cpu time spent up to now is     3485.5 secs

     total energy              =     -40.24048712 Ry
     Harris-Foulkes estimate   =     -40.24049305 Ry
     estimated scf accuracy    <       0.00001655 Ry

     total magnetization       =     5.00 Bohr mag/cell
     absolute magnetization    =     5.08 Bohr mag/cell

     iteration #  7     ecut=   200.00 Ry     beta=0.70
     Davidson diagonalization with overlap
     ethr =  2.36E-07,  avg # of iterations =  5.6
 
     Magnetic moment per site:
     atom:    1    charge:    4.8101    magn:    4.4995    constr:    0.0000

     total cpu time spent up to now is     3848.1 secs

     End of self-consistent calculation

 ------ SPIN UP ------------


          k = 0.0000 0.0000 0.0000 (186623 PWs)   bands (ev):

    -7.8820  -7.8820  -7.8813  -7.8813  -7.8813  -5.1965  -1.0684  -1.0684
    -1.0684  -0.0182   1.3250   1.3250   2.4717   2.4717   2.4717   2.7719
     2.9039   2.9039   2.9039   3.6230   3.6230   3.6230   3.7108   3.7108
     5.2969

          k = 0.0000 0.0000-0.1429 (186630 PWs)   bands (ev):

    -7.8820  -7.8819  -7.8813  -7.8813  -7.8813  -5.1871  -1.3423  -1.0406
    -1.0406   0.5133   1.0132   1.5624   1.9553   1.9553   2.3809   2.9109
     3.0616   3.1094   3.1094   3.1416   3.6834   4.2567   4.2724   4.2724
     4.3208

          k = 0.0000-0.1429-0.1429 (186716 PWs)   bands (ev):

    -7.8819  -7.8818  -7.8814  -7.8813  -7.8813  -5.1781  -1.2866  -1.2866
    -1.0156   0.7638   1.1052   1.5942   1.5942   2.1961   2.1961   2.9446
     2.9930   3.0479   3.1081   3.1081   3.5353   4.4105   4.6368   4.7411
     4.7411

          k =-0.1429-0.1429-0.1429 (186352 PWs)   bands (ev):

    -7.8818  -7.8818  -7.8814  -7.8814  -7.8814  -5.1694  -1.2405  -1.2405
    -1.2405   1.1014   1.1014   1.1014   1.5774   2.3315   2.3315   2.3315
     2.6447   3.6571   3.6571   4.5038   4.5038   4.5038   4.9292   4.9292
     4.9293

 ------ SPIN DOWN ----------


          k = 0.0000 0.0000 0.0000 (186623 PWs)   bands (ev):

    -4.2364  -3.1785  -3.1785  -3.1752  -3.1752  -3.1752  -0.6551  -0.6551
    -0.6551   0.0996   1.3759   1.3759   2.5796   2.5796   2.5796   2.8791
     3.0402   3.0402   3.0402   3.5992   3.5992   3.5992   3.7357   3.7357
     5.3077

          k = 0.0000 0.0000-0.1429 (186630 PWs)   bands (ev):

    -4.2173  -3.1783  -3.1762  -3.1762  -3.1751  -3.1748  -1.0470  -0.6125
    -0.6125   0.6445   1.1871   1.6305   2.0131   2.0131   2.3623   3.0097
     3.2067   3.2067   3.2246   3.3250   3.7625   4.2359   4.3174   4.3207
     4.3207

          k = 0.0000-0.1429-0.1429 (186716 PWs)   bands (ev):

    -4.1993  -3.1775  -3.1765  -3.1761  -3.1761  -3.1730  -0.9622  -0.9622
    -0.5747   0.7811   1.2464   1.7795   1.7795   2.2753   2.2753   2.9691
     2.9766   3.1751   3.1751   3.2841   3.7303   4.5193   4.7248   4.7248
     4.9316

          k =-0.1429-0.1429-0.1429 (186352 PWs)   bands (ev):

    -4.1823  -3.1773  -3.1773  -3.1773  -3.1729  -3.1729  -0.8926  -0.8926
    -0.8926   1.1302   1.1302   1.1302   1.5661   2.6049   2.6049   2.6049
     2.9726   3.8798   3.8798   4.6752   4.6752   4.6752   4.9132   4.9132
     4.9132

     highest occupied, lowest unoccupied level (ev):    -4.1823   -3.1785

!    total energy              =     -40.24048846 Ry
     Harris-Foulkes estimate   =     -40.24048858 Ry
     estimated scf accuracy    <       0.00000232 Ry

     The total energy is the sum of the following terms:

     one-electron contribution =     -30.88191916 Ry
     hartree contribution      =      19.16332818 Ry
     xc contribution           =     -19.69474977 Ry
     ewald contribution        =      -8.82714771 Ry

     total magnetization       =     5.00 Bohr mag/cell
     absolute magnetization    =     5.08 Bohr mag/cell

     convergence has been achieved in   7 iterations

     Forces acting on atoms (Ry/au):

     atom    1 type  1   force =     0.00000000    0.00000000    0.00000000

     Total force =     0.000000     Total SCF correction =     0.000000


     entering subroutine stress ...

          total   stress  (Ry/bohr**3)                   (kbar)     P=   -0.15
  -0.00000105   0.00000000   0.00000000         -0.15      0.00      0.00
   0.00000000  -0.00000105   0.00000000          0.00     -0.15      0.00
   0.00000000   0.00000000  -0.00000105          0.00      0.00     -0.15


     Writing output data file Mn.save
 
     init_run     :     99.41s CPU    143.58s WALL (       1 calls)
     electrons    :   3535.25s CPU   3703.15s WALL (       1 calls)
     forces       :      2.26s CPU      2.53s WALL (       1 calls)
     stress       :     10.64s CPU     13.40s WALL (       1 calls)

     Called by init_run:
     wfcinit      :     77.56s CPU     78.94s WALL (       1 calls)
     potinit      :      1.44s CPU      1.64s WALL (       1 calls)

     Called by electrons:
     c_bands      :   1814.99s CPU   1834.41s WALL (       7 calls)
     sum_band     :    302.66s CPU    446.68s WALL (       7 calls)
     v_of_rho     :      4.42s CPU      4.74s WALL (       8 calls)
     mix_rho      :   1413.02s CPU   1416.88s WALL (       7 calls)

     Called by c_bands:
     init_us_2    :      3.41s CPU      6.43s WALL (     136 calls)
     cegterg      :   1809.95s CPU   1827.98s WALL (      56 calls)

     Called by sum_band:

     Called by *egterg:
     h_psi        :   1808.34s CPU   1808.80s WALL (     332 calls)
     g_psi        :      3.43s CPU      3.47s WALL (     268 calls)
     cdiaghg      :      0.43s CPU      0.53s WALL (     324 calls)

     Called by h_psi:
     h_psi:pot    :   1804.23s CPU   1804.34s WALL (     332 calls)
     h_psi:calbec :      3.41s CPU      3.42s WALL (     332 calls)
     vloc_psi     :   1795.63s CPU   1795.76s WALL (     332 calls)
     add_vuspsi   :      5.20s CPU      5.17s WALL (     332 calls)

     General routines
     calbec       :      4.08s CPU      4.08s WALL (     372 calls)
     fft          :     11.26s CPU     11.37s WALL (      62 calls)
     ffts         :    988.65s CPU    988.74s WALL (    5398 calls)
     fftw         :   1982.46s CPU   1982.63s WALL (   10840 calls)
     davcio       :      0.00s CPU      0.92s WALL (       8 calls)
 
 
     PWSCF        :     1h 0m CPU        1h 4m WALL

 
   This run was terminated on:  23: 3:26  16Jul2018            

=------------------------------------------------------------------------------=
   JOB DONE.
=------------------------------------------------------------------------------=
