
     Program PWSCF v.6.0 (svn rev. 13079) starts on 26Jul2018 at 19:41:27 

     This program is part of the open-source Quantum ESPRESSO suite
     for quantum simulation of materials; please cite
         "P. Giannozzi et al., J. Phys.:Condens. Matter 21 395502 (2009);
          URL http://www.quantum-espresso.org", 
     in publications or presentations arising from this work. More details at
     http://www.quantum-espresso.org/quote

     Serial version
     Waiting for input...
     Reading input from standard input
     Message from routine read_cards :
     DEPRECATED: no units specified in CELL_PARAMETERS card

     Current dimensions of program PWSCF are:
     Max number of different atomic species (ntypx) = 10
     Max number of k-points (npk) =  40000
     Max angular momentum in pseudopotentials (lmaxx) =  3
 
     G-vector sticks info
     --------------------
     sticks:   dense  smooth     PW     G-vecs:    dense   smooth      PW
     Sum       11873   11873   3125               970115   970115  131827
 


     bravais-lattice index     =            0
     lattice parameter (alat)  =       4.5000  a.u.
     unit-cell volume          =    3906.9844 (a.u.)^3
     number of atoms/cell      =            1
     number of atomic types    =            1
     number of electrons       =         5.00
     number of Kohn-Sham states=           25
     kinetic-energy cutoff     =     150.0000  Ry
     charge density cutoff     =     600.0000  Ry
     convergence threshold     =      5.0E-06
     mixing beta               =       0.7000
     number of iterations used =            4  local-TF  mixing
     Exchange-correlation      = PZ ( 1  1  0  0 0 0)

     celldm(1)=   4.500000  celldm(2)=   0.000000  celldm(3)=   0.000000
     celldm(4)=   0.000000  celldm(5)=   0.000000  celldm(6)=   0.000000

     crystal axes: (cart. coord. in units of alat)
               a(1) = (   3.500000   0.000000   0.000000 )  
               a(2) = (   0.000000   3.500000   0.000000 )  
               a(3) = (   0.000000   0.000000   3.500000 )  

     reciprocal axes: (cart. coord. in units 2 pi/alat)
               b(1) = (  0.285714  0.000000  0.000000 )  
               b(2) = (  0.000000  0.285714  0.000000 )  
               b(3) = (  0.000000  0.000000  0.285714 )  


     PseudoPot. # 1 for  P read from file:
     ./P.UPF
     MD5 check sum: b88c35a6f4b891eaa010a3085e4716c8
     Pseudo is Norm-conserving + core correction, Zval =  5.0
     Generated using "atomic" code by A. Dal Corso  v.6.0 svn rev. 13079
     Using radial grid of 1147 points,  2 beta functions with: 
                l(1) =   0
                l(2) =   1

     atomic species   valence    mass     pseudopotential
        P              5.00    12.00000      P( 1.00)

     Starting magnetic structure 
     atomic species   magnetization
        P            0.010

     48 Sym. Ops., with inversion, found



   Cartesian axes

     site n.     atom                  positions (alat units)
         1           P   tau(   1) = (   1.7500000   1.7500000   1.7500000  )

     number of k points=     4  gaussian smearing, width (Ry)=  0.0030
                       cart. coord. in units 2pi/alat
        k(    1) = (   0.0000000   0.0000000   0.0000000), wk =   0.1250000
        k(    2) = (   0.0000000   0.0000000  -0.1428571), wk =   0.3750000
        k(    3) = (   0.0000000  -0.1428571  -0.1428571), wk =   0.3750000
        k(    4) = (  -0.1428571  -0.1428571  -0.1428571), wk =   0.1250000

     Dense  grid:   970115 G-vectors     FFT dimensions: ( 123, 123, 123)

     Estimated max dynamical RAM per process >    1483.95Mb
     Generating pointlists ...
     new r_m :   0.4125 (alat units)  1.8563 (a.u.) for type    1
dfftp%nnr =1860867
    123    123    123    123    123    123
SIZE(dfftp%isind) =   15129
bg(1:3,1):   0.2857  0.0000  0.0000
bg(1:3,2):   0.0000  0.2857  0.0000
bg(1:3,3):   0.0000  0.0000  0.2857
at(1:3,1):   3.5000  0.0000  0.0000
at(1:3,2):   0.0000  3.5000  0.0000
at(1:3,3):   0.0000  0.0000  3.5000
nt =     1 na =    1
tau(:,na) =    1.75000   1.75000   1.75000
  k    rho_core(k)
       1   0.00000E+00
       2   0.00000E+00
       3   0.00000E+00
       4   0.00000E+00
       5   0.00000E+00
       6   0.00000E+00
       7   0.00000E+00
       8   0.00000E+00
       9   0.00000E+00
      10   0.00000E+00
      11   0.00000E+00
      12   0.00000E+00
      13   0.00000E+00
      14   0.00000E+00
      15   0.00000E+00
      16   0.00000E+00
      17   0.00000E+00
      18   0.00000E+00
      19   0.00000E+00
      20   0.00000E+00
      21   0.00000E+00
      22   0.00000E+00
      23   0.00000E+00
      24   0.00000E+00
      25   0.00000E+00
      26   0.00000E+00
      27   0.00000E+00
      28   0.00000E+00
      29   0.00000E+00
      30   0.00000E+00
      31   0.00000E+00
      32   0.00000E+00
      33   0.00000E+00
      34   0.00000E+00
      35   0.00000E+00
      36   0.00000E+00
      37   0.00000E+00
      38   0.00000E+00
      39   0.00000E+00
      40   0.00000E+00
      41   0.00000E+00
      42   0.00000E+00
      43   0.00000E+00
      44   0.00000E+00
      45   0.00000E+00
      46   0.00000E+00
      47   0.00000E+00
      48   0.00000E+00
      49   0.00000E+00
      50   0.00000E+00
      51   0.00000E+00
      52   0.00000E+00
      53   0.00000E+00
      54   0.00000E+00
      55   0.00000E+00
      56   0.00000E+00
      57   0.00000E+00
      58   0.00000E+00
      59   0.00000E+00
      60   0.00000E+00
      61   0.00000E+00
      62   0.00000E+00
      63   0.00000E+00
      64   0.00000E+00
      65   0.00000E+00
      66   0.00000E+00
      67   0.00000E+00
      68   0.00000E+00
      69   0.00000E+00
      70   0.00000E+00
      71   0.00000E+00
      72   0.00000E+00
      73   0.00000E+00
      74   0.00000E+00
      75   0.00000E+00
      76   0.00000E+00
      77   0.00000E+00
      78   0.00000E+00
      79   0.00000E+00
      80   0.00000E+00
      81   0.00000E+00
      82   0.00000E+00
      83   0.00000E+00
      84   0.00000E+00
      85   0.00000E+00
      86   0.00000E+00
      87   0.00000E+00
      88   0.00000E+00
      89   0.00000E+00
      90   0.00000E+00
      91   0.00000E+00
      92   0.00000E+00
      93   0.00000E+00
      94   0.00000E+00
      95   0.00000E+00
      96   0.00000E+00
      97   0.00000E+00
      98   0.00000E+00
      99   0.00000E+00
     100   0.00000E+00
     101   0.00000E+00
     102   0.00000E+00
     103   0.00000E+00
     104   0.00000E+00
     105   0.00000E+00
     106   0.00000E+00
     107   0.00000E+00
     108   0.00000E+00
     109   0.00000E+00
     110   0.00000E+00
     111   0.00000E+00
     112   0.00000E+00
     113   0.00000E+00
     114   0.00000E+00
     115   0.00000E+00
     116   0.00000E+00
     117   0.00000E+00
     118   0.00000E+00
     119   0.00000E+00
     120   0.00000E+00
     121   0.00000E+00
     122   0.00000E+00
     123   0.00000E+00
     124   0.00000E+00
     125   0.00000E+00
     126   0.00000E+00
     127   0.00000E+00
     128   0.00000E+00
     129   0.00000E+00
     130   0.00000E+00
     131   0.00000E+00
     132   0.00000E+00
     133   0.00000E+00
     134   0.00000E+00
     135   0.00000E+00
     136   0.00000E+00
     137   0.00000E+00
     138   0.00000E+00
     139   0.00000E+00
     140   0.00000E+00
     141   0.00000E+00
     142   0.00000E+00
     143   0.00000E+00
     144   0.00000E+00
     145   0.00000E+00
     146   0.00000E+00
     147   0.00000E+00
     148   0.00000E+00
     149   0.00000E+00
     150   0.00000E+00
     151   0.00000E+00
     152   0.00000E+00
     153   0.00000E+00
     154   0.00000E+00
     155   0.00000E+00
     156   0.00000E+00
     157   0.00000E+00
     158   0.00000E+00
     159   0.00000E+00
     160   0.00000E+00
     161   0.00000E+00
     162   0.00000E+00
     163   0.00000E+00
     164   0.00000E+00
     165   0.00000E+00
     166   0.00000E+00
     167   0.00000E+00
     168   0.00000E+00
     169   0.00000E+00
     170   0.00000E+00
     171   0.00000E+00
     172   0.00000E+00
     173   0.00000E+00
     174   0.00000E+00
     175   0.00000E+00
     176   0.00000E+00
     177   0.00000E+00
     178   0.00000E+00
     179   0.00000E+00
     180   0.00000E+00
     181   0.00000E+00
     182   0.00000E+00
     183   0.00000E+00
     184   0.00000E+00
     185   0.00000E+00
     186   0.00000E+00
     187   0.00000E+00
     188   0.00000E+00
     189   0.00000E+00
     190   0.00000E+00
     191   0.00000E+00
     192   0.00000E+00
     193   0.00000E+00
     194   0.00000E+00
     195   0.00000E+00
     196   0.00000E+00
     197   0.00000E+00
     198   0.00000E+00
     199   0.00000E+00
     200   0.00000E+00
     201   0.00000E+00
     202   0.00000E+00
     203   0.00000E+00
     204   0.00000E+00
     205   0.00000E+00
     206   0.00000E+00
     207   0.00000E+00
     208   0.00000E+00
     209   0.00000E+00
     210   0.00000E+00
     211   0.00000E+00
     212   0.00000E+00
     213   0.00000E+00
     214   0.00000E+00
     215   0.00000E+00
     216   0.00000E+00
     217   0.00000E+00
     218   0.00000E+00
     219   0.00000E+00
     220   0.00000E+00
     221   0.00000E+00
     222   0.00000E+00
     223   0.00000E+00
     224   0.00000E+00
     225   0.00000E+00
     226   0.00000E+00
     227   0.00000E+00
     228   0.00000E+00
     229   0.00000E+00
     230   0.00000E+00
     231   0.00000E+00
     232   0.00000E+00
     233   0.00000E+00
     234   0.00000E+00
     235   0.00000E+00
     236   0.00000E+00
     237   0.00000E+00
     238   0.00000E+00
     239   0.00000E+00
     240   0.00000E+00
     241   0.00000E+00
     242   0.00000E+00
     243   0.00000E+00
     244   0.00000E+00
     245   0.00000E+00
     246   0.00000E+00
     247   0.00000E+00
     248   0.00000E+00
     249   0.00000E+00
     250   0.00000E+00
     251   0.00000E+00
     252   0.00000E+00
     253   0.00000E+00
     254   0.00000E+00
     255   0.00000E+00
     256   0.00000E+00
     257   0.00000E+00
     258   0.00000E+00
     259   0.00000E+00
     260   0.00000E+00
     261   0.00000E+00
     262   0.00000E+00
     263   0.00000E+00
     264   0.00000E+00
     265   0.00000E+00
     266   0.00000E+00
     267   0.00000E+00
     268   0.00000E+00
     269   0.00000E+00
     270   0.00000E+00
     271   0.00000E+00
     272   0.00000E+00
     273   0.00000E+00
     274   0.00000E+00
     275   0.00000E+00
     276   0.00000E+00
     277   0.00000E+00
     278   0.00000E+00
     279   0.00000E+00
     280   0.00000E+00
     281   0.00000E+00
     282   0.00000E+00
     283   0.00000E+00
     284   0.00000E+00
     285   0.00000E+00
     286   0.00000E+00
     287   0.00000E+00
     288   0.00000E+00
     289   0.00000E+00
     290   0.00000E+00
     291   0.00000E+00
     292   0.00000E+00
     293   0.00000E+00
     294   0.00000E+00
     295   0.00000E+00
     296   0.00000E+00
     297   0.00000E+00
     298   0.00000E+00
     299   0.00000E+00
     300   0.00000E+00
  ------------ 
  k    averhoc
           1  2.251710598554987E-022
           2  3.010011983740876E-022
           3  5.763517150314038E-022
           4  1.229641353152886E-021
           5  2.701722443437617E-021
           6  5.935460876308231E-021
           7  1.309986414539012E-020
           8  2.889346400414966E-020
           9  6.367349620860778E-020
          10  1.405432833445633E-019
          11  3.098756134547526E-019
          12  6.835500582588955E-019
          13  1.511062407365527E-018
          14  3.330643153078810E-018
          15  7.366136809478736E-018
          16  1.627835274537541E-017
          17  3.593747066454505E-017
          18  7.941665445035535E-017
          19  1.758264187415429E-016
          20  3.891663832283098E-016
          21  8.612530324979843E-016
          22  1.906880236929978E-015
          23  4.224860423575582E-015
          24  9.361981977100162E-015
          25  2.075455534977001E-014
          26  4.601387112525640E-014
          27  1.020858942358236E-013
          28  2.267616476795567E-013
          29  5.039104313384690E-013
          30  1.119621615725499E-012
          31  2.491944296014440E-012
          32  5.544887067485258E-012
          33  1.235546750021183E-011
          34  2.756674312464877E-011
          35  6.147031654440442E-011
          36  1.373981310532127E-010
          37  3.071007708814390E-010
          38  6.870496377716523E-010
          39  1.539153513884594E-009
          40  3.453575446496944E-009
          41  7.757044531442661E-009
          42  1.743554885469246E-008
          43  3.924393751210632E-008
          44  8.848207244161032E-008
          45  1.997252789079934E-007
          46  4.513553707235229E-007
          47  1.021004402415176E-006
          48  2.311805458562309E-006
          49  5.234055750287416E-006
          50  1.185890911901249E-005
          51  2.683978196600483E-005
          52  6.065836716352668E-005
          53  1.366566303875038E-004
          54  3.063535930766716E-004
          55  6.800932770094538E-004
          56  1.354375843875343E-003
          57  2.263699009424879E-003
          58  3.298055790377613E-003
          59  4.333720914626651E-003
          60  5.243298906940135E-003
          61  5.919328143514923E-003
          62  6.279286670622070E-003
          63  6.279286670622070E-003
          64  5.919328143514923E-003
          65  5.243298906940135E-003
          66  4.333720914626651E-003
          67  3.298055790377613E-003
          68  2.263699009424879E-003
          69  1.354375843875343E-003
          70  6.800932770094538E-004
          71  3.063535930766716E-004
          72  1.366566303875028E-004
          73  6.065836716352668E-005
          74  2.683978196600483E-005
          75  1.185890911901256E-005
          76  5.234055750287383E-006
          77  2.311805458562309E-006
          78  1.021004402415181E-006
          79  4.513553707235191E-007
          80  1.997252789079934E-007
          81  8.848207244161032E-008
          82  3.924393751210651E-008
          83  1.743554885469236E-008
          84  7.757044531442661E-009
          85  3.453575446496944E-009
          86  1.539153513884603E-009
          87  6.870496377716523E-010
          88  3.071007708814390E-010
          89  1.373981310532129E-010
          90  6.147031654440397E-011
          91  2.756674312464877E-011
          92  1.235546750021186E-011
          93  5.544887067485289E-012
          94  2.491944296014428E-012
          95  1.119621615725499E-012
          96  5.039104313384706E-013
          97  2.267616476795554E-013
          98  1.020858942358236E-013
          99  4.601387112525640E-014
         100  2.075455534977001E-014
         101  9.361981977100162E-015
         102  4.224860423575582E-015
         103  1.906880236929978E-015
         104  8.612530324979903E-016
         105  3.891663832283098E-016
         106  1.758264187415429E-016
         107  7.941665445035535E-017
         108  3.593747066454479E-017
         109  1.627835274537541E-017
         110  7.366136809478736E-018
         111  3.330643153078824E-018
         112  1.511062407365520E-018
         113  6.835500582588955E-019
         114  3.098756134547526E-019
         115  1.405432833445623E-019
         116  6.367349620860778E-020
         117  2.889346400414966E-020
         118  1.309986414539018E-020
         119  5.935460876308188E-021
         120  2.701722443437617E-021
         121  1.229641353152886E-021
         122  5.763517150314089E-022
         123  3.010011983740864E-022
  ------------ 
  k    rhog_core(k)
       1   0.48656E-03   0.00000E+00
       2  -0.47856E-03  -0.25072E-19
       3  -0.47856E-03  -0.26971E-19
       4  -0.47856E-03  -0.13039E-19
       5  -0.47856E-03  -0.28169E-19
       6  -0.47856E-03  -0.26678E-19
       7  -0.47856E-03  -0.27037E-19
       8   0.47069E-03   0.46532E-19
       9   0.47069E-03   0.42391E-19
      10   0.47069E-03   0.53331E-19
      11   0.47069E-03   0.51871E-19
      12   0.47069E-03   0.55438E-19
      13   0.47069E-03   0.56022E-19
      14   0.47069E-03   0.40120E-19
      15   0.47069E-03   0.54057E-19
      16   0.47069E-03   0.50720E-19
      17   0.47069E-03   0.61527E-19
      18   0.47069E-03   0.48865E-19
      19   0.47069E-03   0.51965E-19
      20  -0.46293E-03  -0.64232E-19
      21  -0.46293E-03  -0.72706E-19
      22  -0.46293E-03  -0.87440E-19
      23  -0.46293E-03  -0.73915E-19
      24  -0.46293E-03  -0.66353E-19
      25  -0.46293E-03  -0.79428E-19
      26  -0.46293E-03  -0.87440E-19
      27  -0.46293E-03  -0.77731E-19
      28   0.45529E-03  -0.13065E-21
      29   0.45529E-03  -0.60499E-20
      30   0.45529E-03   0.12940E-19
      31   0.45529E-03   0.10623E-19
      32   0.45529E-03   0.80960E-20
      33   0.45529E-03   0.65925E-20
      34  -0.44777E-03  -0.22542E-19
      35  -0.44777E-03  -0.13199E-19
      36  -0.44777E-03  -0.24514E-19
      37  -0.44777E-03  -0.24673E-19
      38  -0.44777E-03  -0.22148E-19
      39  -0.44777E-03  -0.19016E-19
      40  -0.44777E-03  -0.33569E-19
      41  -0.44777E-03  -0.30947E-19
      42  -0.44777E-03  -0.10337E-19
      43  -0.44777E-03  -0.18796E-19
      44  -0.44777E-03  -0.26443E-19
      45  -0.44777E-03  -0.27856E-19
      46  -0.44777E-03  -0.26352E-19
      47  -0.44777E-03  -0.27617E-19
      48  -0.44777E-03  -0.28969E-19
      49  -0.44777E-03  -0.31823E-19
      50  -0.44777E-03  -0.20685E-19
      51  -0.44777E-03  -0.13631E-19
      52  -0.44777E-03  -0.33744E-19
      53  -0.44777E-03  -0.34513E-19
      54  -0.44777E-03  -0.30055E-19
      55  -0.44777E-03  -0.28429E-19
      56  -0.44777E-03  -0.31268E-19
      57  -0.44777E-03  -0.31343E-19
      58   0.44037E-03   0.47193E-19
      59   0.44037E-03   0.43935E-19
      60   0.44037E-03   0.47427E-19
      61   0.44037E-03   0.47993E-19
      62   0.44037E-03   0.35775E-19
      63   0.44037E-03   0.42903E-19
      64   0.44037E-03   0.36963E-19
      65   0.44037E-03   0.55748E-19
      66   0.44037E-03   0.42712E-19
      67   0.44037E-03   0.51760E-19
      68   0.44037E-03   0.56327E-19
      69   0.44037E-03   0.54942E-19
      70   0.44037E-03   0.33642E-19
      71   0.44037E-03   0.41720E-19
      72   0.44037E-03   0.57861E-19
      73   0.44037E-03   0.51861E-19
      74   0.44037E-03   0.57903E-19
      75   0.44037E-03   0.47933E-19
      76   0.44037E-03   0.57066E-19
      77   0.44037E-03   0.57596E-19
      78   0.44037E-03   0.64749E-19
      79   0.44037E-03   0.52076E-19
      80   0.44037E-03   0.56738E-19
      81   0.44037E-03   0.53468E-19
      82   0.42590E-03   0.16506E-20
      83   0.42590E-03  -0.77735E-20
      84   0.42590E-03   0.10955E-19
      85   0.42590E-03   0.87265E-20
      86   0.42590E-03  -0.23797E-19
      87   0.42590E-03   0.10061E-19
      88   0.42590E-03   0.15537E-19
      89   0.42590E-03   0.15363E-19
      90   0.42590E-03   0.96095E-20
      91   0.42590E-03   0.94272E-20
      92   0.42590E-03   0.14702E-19
      93   0.42590E-03   0.12772E-19
      94  -0.41883E-03   0.19237E-19
      95  -0.41883E-03  -0.29084E-19
      96  -0.41883E-03  -0.27056E-19
      97  -0.41883E-03  -0.31522E-19
      98  -0.41883E-03  -0.26440E-19
      99  -0.41883E-03  -0.33657E-19
     100  -0.41883E-03  -0.26520E-19
  970015  -0.30505E-07  -0.10271E-20
  970016  -0.30505E-07  -0.13115E-20
  970017  -0.30505E-07  -0.10419E-20
  970018  -0.30505E-07  -0.81690E-21
  970019  -0.30505E-07  -0.86392E-21
  970020  -0.35106E-07   0.11769E-20
  970021  -0.28741E-07   0.43179E-21
  970022  -0.28741E-07   0.42980E-21
  970023  -0.28741E-07   0.15845E-21
  970024  -0.28741E-07   0.28039E-22
  970025  -0.35106E-07   0.98949E-21
  970026  -0.35106E-07   0.63063E-21
  970027  -0.28741E-07   0.15711E-21
  970028  -0.28741E-07   0.29498E-22
  970029  -0.28741E-07   0.42307E-21
  970030  -0.28741E-07   0.41850E-21
  970031  -0.35106E-07   0.96982E-21
  970032  -0.64668E-08  -0.27836E-22
  970033  -0.64668E-08   0.10724E-21
  970034  -0.90565E-08   0.18069E-21
  970035  -0.90565E-08   0.75012E-22
  970036  -0.90565E-08   0.26852E-21
  970037  -0.90565E-08   0.22171E-21
  970038  -0.64668E-08   0.25550E-21
  970039  -0.64668E-08   0.31079E-21
  970040  -0.64668E-08   0.32262E-21
  970041  -0.64668E-08   0.38154E-21
  970042  -0.90565E-08   0.21356E-21
  970043  -0.90565E-08   0.16767E-21
  970044  -0.90565E-08   0.16995E-21
  970045  -0.90565E-08   0.64948E-22
  970046  -0.64668E-08   0.77684E-23
  970047  -0.64668E-08   0.14525E-21
  970048  -0.27014E-07   0.10121E-20
  970049  -0.27014E-07   0.99877E-21
  970050  -0.27014E-07   0.12417E-20
  970051  -0.27014E-07   0.12343E-20
  970052  -0.41473E-07  -0.48778E-21
  970053  -0.41473E-07  -0.34976E-21
  970054  -0.47190E-07   0.31072E-21
  970055  -0.47190E-07   0.31074E-21
  970056  -0.47190E-07   0.15329E-21
  970057  -0.47190E-07   0.12685E-21
  970058  -0.41473E-07  -0.42251E-21
  970059  -0.41473E-07  -0.23895E-21
  970060  -0.41473E-07  -0.31775E-21
  970061  -0.41473E-07  -0.13214E-21
  970062  -0.47190E-07   0.16884E-21
  970063  -0.47190E-07   0.13245E-21
  970064  -0.47190E-07   0.21085E-21
  970065  -0.47190E-07   0.21506E-21
  970066  -0.41473E-07  -0.32244E-21
  970067  -0.41473E-07  -0.18929E-21
  970068  -0.53154E-07   0.21465E-22
  970069  -0.53154E-07   0.13859E-21
  970070  -0.53154E-07   0.51305E-22
  970071  -0.53154E-07  -0.60598E-23
  970072  -0.53154E-07   0.14014E-21
  970073  -0.53154E-07   0.82948E-22
  970074  -0.53154E-07  -0.66621E-22
  970075  -0.53154E-07   0.46302E-22
  970076  -0.57968E-07  -0.72208E-22
  970077  -0.57968E-07  -0.95828E-22
  970078  -0.57968E-07   0.49740E-23
  970079  -0.57968E-07  -0.37911E-22
  970080  -0.57968E-07  -0.36941E-22
  970081  -0.57968E-07  -0.90785E-22
  970082  -0.57968E-07  -0.15902E-21
  970083  -0.57968E-07  -0.17980E-21
  970084  -0.22326E-07  -0.16117E-21
  970085  -0.10301E-07  -0.18916E-21
  970086  -0.10301E-07  -0.16594E-21
  970087  -0.10301E-07  -0.27716E-21
  970088  -0.10301E-07  -0.19444E-21
  970089  -0.22326E-07  -0.39382E-21
  970090  -0.22326E-07  -0.21249E-21
  970091  -0.10301E-07  -0.27824E-21
  970092  -0.10301E-07  -0.19081E-21
  970093  -0.10301E-07  -0.47562E-22
  970094  -0.10301E-07  -0.25861E-22
  970095  -0.22326E-07   0.16452E-22
  970096   0.54191E-08  -0.71109E-21
  970097   0.54191E-08  -0.72755E-21
  970098   0.13601E-07  -0.54792E-21
  970099   0.13601E-07  -0.55276E-21
  970100   0.13601E-07  -0.48879E-21
  970101   0.13601E-07  -0.54066E-21
  970102   0.54191E-08  -0.61623E-21
  970103   0.54191E-08  -0.61518E-21
  970104   0.54191E-08  -0.61851E-21
  970105   0.54191E-08  -0.61461E-21
  970106   0.13601E-07  -0.50162E-21
  970107   0.13601E-07  -0.55480E-21
  970108   0.13601E-07  -0.61878E-21
  970109   0.13601E-07  -0.62516E-21
  970110   0.54191E-08  -0.70027E-21
  970111   0.54191E-08  -0.71785E-21
  970112   0.10058E-07  -0.34504E-20
  970113   0.10058E-07  -0.33019E-20
  970114   0.10058E-07  -0.33096E-20
  970115   0.10058E-07  -0.34639E-20
  ------------ 

     Initial potential from superposition of free atoms

     starting charge    4.99986, renormalised to    5.00000

     negative rho (up, down):  1.549E-06 1.519E-06
     Starting wfc are    4 randomized atomic wfcs +   21 random wfc

     total cpu time spent up to now is       90.6 secs

     per-process dynamical memory:   945.9 Mb

     Self-consistent Calculation

     iteration #  1     ecut=   150.00 Ry     beta=0.70
     Davidson diagonalization with overlap
     ethr =  1.00E-02,  avg # of iterations =  8.5

     Threshold (ethr) on eigenvalues was too large:
     Diagonalizing with lowered threshold

     Davidson diagonalization with overlap
     ethr =  7.52E-05,  avg # of iterations =  8.9

     negative rho (up, down):  1.753E-07 7.434E-07

     total cpu time spent up to now is      767.2 secs

     total energy              =     -15.15220594 Ry
     Harris-Foulkes estimate   =     -15.13480018 Ry
     estimated scf accuracy    <       0.00376081 Ry

     total magnetization       =     1.32 Bohr mag/cell
     absolute magnetization    =     1.32 Bohr mag/cell

     iteration #  2     ecut=   150.00 Ry     beta=0.70
     Davidson diagonalization with overlap
     ethr =  7.52E-05,  avg # of iterations =  2.5

     negative rho (up, down):  1.737E-04 1.197E-04

     total cpu time spent up to now is      969.2 secs

     total energy              =     -15.03653343 Ry
     Harris-Foulkes estimate   =     -15.18585819 Ry
     estimated scf accuracy    <       0.01043872 Ry

     total magnetization       =     3.00 Bohr mag/cell
     absolute magnetization    =     3.00 Bohr mag/cell

     iteration #  3     ecut=   150.00 Ry     beta=0.70
     Davidson diagonalization with overlap
     ethr =  7.52E-05,  avg # of iterations =  3.8

     negative rho (up, down):  4.930E-06 3.645E-06

     total cpu time spent up to now is     1199.7 secs

     total energy              =     -15.16594057 Ry
     Harris-Foulkes estimate   =     -15.19279174 Ry
     estimated scf accuracy    <       0.00934453 Ry

     total magnetization       =    -3.00 Bohr mag/cell
     absolute magnetization    =     3.00 Bohr mag/cell

     iteration #  4     ecut=   150.00 Ry     beta=0.70
     Davidson diagonalization with overlap
     ethr =  7.52E-05,  avg # of iterations =  1.9

     total cpu time spent up to now is     1432.0 secs

     total energy              =     -15.13241020 Ry
     Harris-Foulkes estimate   =     -15.16603692 Ry
     estimated scf accuracy    <       0.01412662 Ry

     total magnetization       =    -3.00 Bohr mag/cell
     absolute magnetization    =     3.00 Bohr mag/cell

     iteration #  5     ecut=   150.00 Ry     beta=0.70
     Davidson diagonalization with overlap
     ethr =  7.52E-05,  avg # of iterations =  1.6

     negative rho (up, down):  3.408E-08 4.248E-08

     total cpu time spent up to now is     1630.8 secs

     total energy              =     -15.12685150 Ry
     Harris-Foulkes estimate   =     -15.13477146 Ry
     estimated scf accuracy    <       0.00365974 Ry

     total magnetization       =    -1.30 Bohr mag/cell
     absolute magnetization    =     1.30 Bohr mag/cell

     iteration #  6     ecut=   150.00 Ry     beta=0.70
     Davidson diagonalization with overlap

     Maximum CPU time exceeded

     max_seconds     =    1700.00
     elapsed seconds =    1707.56
     Calculation stopped in k-point loop, point #     7
     Calculation stopped in scf loop at iteration #     5

     Writing output data file P.save
 
     init_run     :     57.02s CPU     89.48s WALL (       1 calls)
     electrons    :   1529.04s CPU   1618.73s WALL (       1 calls)

     Called by init_run:
     wfcinit      :     44.79s CPU     45.59s WALL (       1 calls)
     potinit      :      0.88s CPU      1.43s WALL (       1 calls)

     Called by electrons:
     c_bands      :   1025.91s CPU   1034.65s WALL (       7 calls)
     sum_band     :    142.21s CPU    223.09s WALL (       6 calls)
     v_of_rho     :      2.11s CPU      2.15s WALL (       6 calls)
     mix_rho      :    358.99s CPU    359.74s WALL (       6 calls)

     Called by c_bands:
     init_us_2    :      1.24s CPU      1.25s WALL (     111 calls)
     cegterg      :   1023.63s CPU   1030.86s WALL (      55 calls)

     Called by sum_band:

     Called by *egterg:
     h_psi        :   1020.39s CPU   1020.67s WALL (     287 calls)
     g_psi        :      2.29s CPU      2.32s WALL (     224 calls)
     cdiaghg      :      0.26s CPU      0.40s WALL (     271 calls)

     Called by h_psi:
     h_psi:pot    :   1017.78s CPU   1017.82s WALL (     287 calls)
     h_psi:calbec :      2.53s CPU      2.56s WALL (     287 calls)
     vloc_psi     :   1013.43s CPU   1013.46s WALL (     287 calls)
     add_vuspsi   :      1.82s CPU      1.80s WALL (     287 calls)

     General routines
     calbec       :      2.53s CPU      2.56s WALL (     287 calls)
     fft          :      4.76s CPU      4.86s WALL (      46 calls)
     ffts         :    249.37s CPU    249.39s WALL (    2411 calls)
     fftw         :   1107.01s CPU   1107.21s WALL (   10784 calls)
     davcio       :      0.01s CPU      1.13s WALL (      18 calls)
 
 
     PWSCF        : 26m26.24s CPU    28m30.33s WALL

 
   This run was terminated on:  20: 9:57  26Jul2018            

=------------------------------------------------------------------------------=
   JOB DONE.
=------------------------------------------------------------------------------=
