
     Program PWSCF v.6.0 (svn rev. 13079) starts on 26Jul2018 at 15: 7:18 

     This program is part of the open-source Quantum ESPRESSO suite
     for quantum simulation of materials; please cite
         "P. Giannozzi et al., J. Phys.:Condens. Matter 21 395502 (2009);
          URL http://www.quantum-espresso.org", 
     in publications or presentations arising from this work. More details at
     http://www.quantum-espresso.org/quote

     Serial version
     Waiting for input...
     Reading input from standard input
     Message from routine read_cards :
     DEPRECATED: no units specified in CELL_PARAMETERS card

     Current dimensions of program PWSCF are:
     Max number of different atomic species (ntypx) = 10
     Max number of k-points (npk) =  40000
     Max angular momentum in pseudopotentials (lmaxx) =  3
 
     G-vector sticks info
     --------------------
     sticks:   dense  smooth     PW     G-vecs:    dense   smooth      PW
     Sum       15793   15793   4149              1493013  1493013  200597
 


     bravais-lattice index     =            0
     lattice parameter (alat)  =       4.5000  a.u.
     unit-cell volume          =    3906.9844 (a.u.)^3
     number of atoms/cell      =            1
     number of atomic types    =            1
     number of electrons       =         6.00 (up:   6.00, down:   0.00)
     number of Kohn-Sham states=           25
     kinetic-energy cutoff     =     200.0000  Ry
     charge density cutoff     =     800.0000  Ry
     convergence threshold     =      5.0E-06
     mixing beta               =       0.7000
     number of iterations used =            4  local-TF  mixing
     Exchange-correlation      = PZ ( 1  1  0  0 0 0)

     celldm(1)=   4.500000  celldm(2)=   0.000000  celldm(3)=   0.000000
     celldm(4)=   0.000000  celldm(5)=   0.000000  celldm(6)=   0.000000

     crystal axes: (cart. coord. in units of alat)
               a(1) = (   3.500000   0.000000   0.000000 )  
               a(2) = (   0.000000   3.500000   0.000000 )  
               a(3) = (   0.000000   0.000000   3.500000 )  

     reciprocal axes: (cart. coord. in units 2 pi/alat)
               b(1) = (  0.285714  0.000000  0.000000 )  
               b(2) = (  0.000000  0.285714  0.000000 )  
               b(3) = (  0.000000  0.000000  0.285714 )  


     PseudoPot. # 1 for Cr read from file:
     ./Cr.UPF
     MD5 check sum: cf8d976cf4f89357eb7e1c7e1e9586a1
     Pseudo is Norm-conserving + core correction, Zval =  6.0
     Generated using "atomic" code by A. Dal Corso  v.6.0 svn rev. 13079
     Using radial grid of 1183 points,  2 beta functions with: 
                l(1) =   1
                l(2) =   2

     atomic species   valence    mass     pseudopotential
        Cr             6.00    12.00000     Cr( 1.00)

     Starting magnetic structure 
     atomic species   magnetization
        Cr           0.000

     48 Sym. Ops., with inversion, found



   Cartesian axes

     site n.     atom                  positions (alat units)
         1           Cr  tau(   1) = (   1.7500000   1.7500000   1.7500000  )

     number of k points=     4
                       cart. coord. in units 2pi/alat
        k(    1) = (   0.0000000   0.0000000   0.0000000), wk =   0.1250000
        k(    2) = (   0.0000000   0.0000000  -0.1428571), wk =   0.3750000
        k(    3) = (   0.0000000  -0.1428571  -0.1428571), wk =   0.3750000
        k(    4) = (  -0.1428571  -0.1428571  -0.1428571), wk =   0.1250000

     Dense  grid:  1493013 G-vectors     FFT dimensions: ( 141, 141, 141)

     Estimated max dynamical RAM per process >    2288.50Mb
     Generating pointlists ...
     new r_m :   0.4125 (alat units)  1.8563 (a.u.) for type    1
dfftp%nnr =2803221
    141    141    141    141    141    141
SIZE(dfftp%isind) =   19881
bg(1:3,1):   0.2857  0.0000  0.0000
bg(1:3,2):   0.0000  0.2857  0.0000
bg(1:3,3):   0.0000  0.0000  0.2857
at(1:3,1):   3.5000  0.0000  0.0000
at(1:3,2):   0.0000  3.5000  0.0000
at(1:3,3):   0.0000  0.0000  3.5000
nt =     1 na =    1
tau(:,na) =    1.75000   1.75000   1.75000
  k    rho_core(k)
       1   0.00000E+00
       2   0.00000E+00
       3   0.00000E+00
       4   0.00000E+00
       5   0.00000E+00
       6   0.00000E+00
       7   0.00000E+00
       8   0.00000E+00
       9   0.00000E+00
      10   0.00000E+00
      11   0.00000E+00
      12   0.00000E+00
      13   0.00000E+00
      14   0.00000E+00
      15   0.00000E+00
      16   0.00000E+00
      17   0.00000E+00
      18   0.00000E+00
      19   0.00000E+00
      20   0.00000E+00
      21   0.00000E+00
      22   0.00000E+00
      23   0.00000E+00
      24   0.00000E+00
      25   0.00000E+00
      26   0.00000E+00
      27   0.00000E+00
      28   0.00000E+00
      29   0.00000E+00
      30   0.00000E+00
      31   0.00000E+00
      32   0.00000E+00
      33   0.00000E+00
      34   0.00000E+00
      35   0.00000E+00
      36   0.00000E+00
      37   0.00000E+00
      38   0.00000E+00
      39   0.00000E+00
      40   0.00000E+00
      41   0.00000E+00
      42   0.00000E+00
      43   0.00000E+00
      44   0.00000E+00
      45   0.00000E+00
      46   0.00000E+00
      47   0.00000E+00
      48   0.00000E+00
      49   0.00000E+00
      50   0.00000E+00
      51   0.00000E+00
      52   0.00000E+00
      53   0.00000E+00
      54   0.00000E+00
      55   0.00000E+00
      56   0.00000E+00
      57   0.00000E+00
      58   0.00000E+00
      59   0.00000E+00
      60   0.00000E+00
      61   0.00000E+00
      62   0.00000E+00
      63   0.00000E+00
      64   0.00000E+00
      65   0.00000E+00
      66   0.00000E+00
      67   0.00000E+00
      68   0.00000E+00
      69   0.00000E+00
      70   0.00000E+00
      71   0.00000E+00
      72   0.00000E+00
      73   0.00000E+00
      74   0.00000E+00
      75   0.00000E+00
      76   0.00000E+00
      77   0.00000E+00
      78   0.00000E+00
      79   0.00000E+00
      80   0.00000E+00
      81   0.00000E+00
      82   0.00000E+00
      83   0.00000E+00
      84   0.00000E+00
      85   0.00000E+00
      86   0.00000E+00
      87   0.00000E+00
      88   0.00000E+00
      89   0.00000E+00
      90   0.00000E+00
      91   0.00000E+00
      92   0.00000E+00
      93   0.00000E+00
      94   0.00000E+00
      95   0.00000E+00
      96   0.00000E+00
      97   0.00000E+00
      98   0.00000E+00
      99   0.00000E+00
     100   0.00000E+00
     101   0.00000E+00
     102   0.00000E+00
     103   0.00000E+00
     104   0.00000E+00
     105   0.00000E+00
     106   0.00000E+00
     107   0.00000E+00
     108   0.00000E+00
     109   0.00000E+00
     110   0.00000E+00
     111   0.00000E+00
     112   0.00000E+00
     113   0.00000E+00
     114   0.00000E+00
     115   0.00000E+00
     116   0.00000E+00
     117   0.00000E+00
     118   0.00000E+00
     119   0.00000E+00
     120   0.00000E+00
     121   0.00000E+00
     122   0.00000E+00
     123   0.00000E+00
     124   0.00000E+00
     125   0.00000E+00
     126   0.00000E+00
     127   0.00000E+00
     128   0.00000E+00
     129   0.00000E+00
     130   0.00000E+00
     131   0.00000E+00
     132   0.00000E+00
     133   0.00000E+00
     134   0.00000E+00
     135   0.00000E+00
     136   0.00000E+00
     137   0.00000E+00
     138   0.00000E+00
     139   0.00000E+00
     140   0.00000E+00
     141   0.00000E+00
     142   0.00000E+00
     143   0.00000E+00
     144   0.00000E+00
     145   0.00000E+00
     146   0.00000E+00
     147   0.00000E+00
     148   0.00000E+00
     149   0.00000E+00
     150   0.00000E+00
     151   0.00000E+00
     152   0.00000E+00
     153   0.00000E+00
     154   0.00000E+00
     155   0.00000E+00
     156   0.00000E+00
     157   0.00000E+00
     158   0.00000E+00
     159   0.00000E+00
     160   0.00000E+00
     161   0.00000E+00
     162   0.00000E+00
     163   0.00000E+00
     164   0.00000E+00
     165   0.00000E+00
     166   0.00000E+00
     167   0.00000E+00
     168   0.00000E+00
     169   0.00000E+00
     170   0.00000E+00
     171   0.00000E+00
     172   0.00000E+00
     173   0.00000E+00
     174   0.00000E+00
     175   0.00000E+00
     176   0.00000E+00
     177   0.00000E+00
     178   0.00000E+00
     179   0.00000E+00
     180   0.00000E+00
     181   0.00000E+00
     182   0.00000E+00
     183   0.00000E+00
     184   0.00000E+00
     185   0.00000E+00
     186   0.00000E+00
     187   0.00000E+00
     188   0.00000E+00
     189   0.00000E+00
     190   0.00000E+00
     191   0.00000E+00
     192   0.00000E+00
     193   0.00000E+00
     194   0.00000E+00
     195   0.00000E+00
     196   0.00000E+00
     197   0.00000E+00
     198   0.00000E+00
     199   0.00000E+00
     200   0.00000E+00
     201   0.00000E+00
     202   0.00000E+00
     203   0.00000E+00
     204   0.00000E+00
     205   0.00000E+00
     206   0.00000E+00
     207   0.00000E+00
     208   0.00000E+00
     209   0.00000E+00
     210   0.00000E+00
     211   0.00000E+00
     212   0.00000E+00
     213   0.00000E+00
     214   0.00000E+00
     215   0.00000E+00
     216   0.00000E+00
     217   0.00000E+00
     218   0.00000E+00
     219   0.00000E+00
     220   0.00000E+00
     221   0.00000E+00
     222   0.00000E+00
     223   0.00000E+00
     224   0.00000E+00
     225   0.00000E+00
     226   0.00000E+00
     227   0.00000E+00
     228   0.00000E+00
     229   0.00000E+00
     230   0.00000E+00
     231   0.00000E+00
     232   0.00000E+00
     233   0.00000E+00
     234   0.00000E+00
     235   0.00000E+00
     236   0.00000E+00
     237   0.00000E+00
     238   0.00000E+00
     239   0.00000E+00
     240   0.00000E+00
     241   0.00000E+00
     242   0.00000E+00
     243   0.00000E+00
     244   0.00000E+00
     245   0.00000E+00
     246   0.00000E+00
     247   0.00000E+00
     248   0.00000E+00
     249   0.00000E+00
     250   0.00000E+00
     251   0.00000E+00
     252   0.00000E+00
     253   0.00000E+00
     254   0.00000E+00
     255   0.00000E+00
     256   0.00000E+00
     257   0.00000E+00
     258   0.00000E+00
     259   0.00000E+00
     260   0.00000E+00
     261   0.00000E+00
     262   0.00000E+00
     263   0.00000E+00
     264   0.00000E+00
     265   0.00000E+00
     266   0.00000E+00
     267   0.00000E+00
     268   0.00000E+00
     269   0.00000E+00
     270   0.00000E+00
     271   0.00000E+00
     272   0.00000E+00
     273   0.00000E+00
     274   0.00000E+00
     275   0.00000E+00
     276   0.00000E+00
     277   0.00000E+00
     278   0.00000E+00
     279   0.00000E+00
     280   0.00000E+00
     281   0.00000E+00
     282   0.00000E+00
     283   0.00000E+00
     284   0.00000E+00
     285   0.00000E+00
     286   0.00000E+00
     287   0.00000E+00
     288   0.00000E+00
     289   0.00000E+00
     290   0.00000E+00
     291   0.00000E+00
     292   0.00000E+00
     293   0.00000E+00
     294   0.00000E+00
     295   0.00000E+00
     296   0.00000E+00
     297   0.00000E+00
     298   0.00000E+00
     299   0.00000E+00
     300   0.00000E+00
  ------------ 
  k    averhoc
           1  5.029510951789325E-014
           2  5.477761897541757E-014
           3  6.901125596289429E-014
           4  9.553023448766768E-014
           5  1.391427478034878E-013
           6  2.076630099209745E-013
           7  3.133083304678136E-013
           8  4.746747082027413E-013
           9  7.210182205194073E-013
          10  1.096848747940088E-012
          11  1.668760468728250E-012
          12  2.538356748209025E-012
          13  3.865172769044971E-012
          14  5.883648602114148E-012
          15  8.956267187685312E-012
          16  1.364218310654060E-011
          17  2.076877283892890E-011
          18  3.164554378560238E-011
          19  4.818645872645448E-011
          20  7.344398195776902E-011
          21  1.118750135896710E-010
          22  1.705214919769499E-010
          23  2.599229045232999E-010
          24  3.961559304948575E-010
          25  6.041896201714759E-010
          26  9.215128933108131E-010
          27  1.405460057123672E-009
          28  2.143888931907671E-009
          29  3.271995954457432E-009
          30  4.994205466347293E-009
          31  7.625357425883438E-009
          32  1.164555673357533E-008
          33  1.778883130998046E-008
          34  2.718227058350318E-008
          35  4.154952318764960E-008
          36  6.353783441834899E-008
          37  9.719865462746239E-008
          38  1.487155325629737E-007
          39  2.276797785587889E-007
          40  3.486918262144049E-007
          41  5.343401619766061E-007
          42  8.191142264592157E-007
          43  1.256196672621413E-006
          44  1.927912793997839E-006
          45  2.959890543199931E-006
          46  4.547777636205938E-006
          47  6.990807566110280E-006
          48  1.075089257191364E-005
          49  1.654283954850776E-005
          50  2.546504636736454E-005
          51  3.921812197288860E-005
          52  6.040933106938022E-005
          53  9.304463534352128E-005
          54  1.432824481918512E-004
          55  2.204791973954262E-004
          56  3.388932444438840E-004
          57  5.197374246778061E-004
          58  7.945658137880429E-004
          59  1.209000241744622E-003
          60  1.826931965363441E-003
          61  2.733869848016355E-003
          62  4.037082883779173E-003
          63  5.863566388725117E-003
          64  8.324085129284618E-003
          65  1.145668024797226E-002
          66  1.517774274295027E-002
          67  1.925682581086697E-002
          68  2.333188808754798E-002
          69  2.695786787582031E-002
          70  2.968579027663895E-002
          71  3.115181539774038E-002
          72  3.115181539774038E-002
          73  2.968579027663895E-002
          74  2.695786787582031E-002
          75  2.333188808754798E-002
          76  1.925682581086697E-002
          77  1.517774274295027E-002
          78  1.145668024797226E-002
          79  8.324085129284618E-003
          80  5.863566388725117E-003
          81  4.037082883779173E-003
          82  2.733869848016361E-003
          83  1.826931965363441E-003
          84  1.209000241744622E-003
          85  7.945658137880405E-004
          86  5.197374246778040E-004
          87  3.388932444438847E-004
          88  2.204791973954262E-004
          89  1.432824481918512E-004
          90  9.304463534352083E-005
          91  6.040933106938048E-005
          92  3.921812197288878E-005
          93  2.546504636736454E-005
          94  1.654283954850776E-005
          95  1.075089257191360E-005
          96  6.990807566110304E-006
          97  4.547777636205956E-006
          98  2.959890543199931E-006
          99  1.927912793997839E-006
         100  1.256196672621409E-006
         101  8.191142264592191E-007
         102  5.343401619766068E-007
         103  3.486918262144049E-007
         104  2.276797785587885E-007
         105  1.487155325629731E-007
         106  9.719865462746279E-008
         107  6.353783441834909E-008
         108  4.154952318764960E-008
         109  2.718227058350315E-008
         110  1.778883130998040E-008
         111  1.164555673357536E-008
         112  7.625357425883438E-009
         113  4.994205466347293E-009
         114  3.271995954457432E-009
         115  2.143888931907666E-009
         116  1.405460057123672E-009
         117  9.215128933108131E-010
         118  6.041896201714759E-010
         119  3.961559304948575E-010
         120  2.599229045232992E-010
         121  1.705214919769499E-010
         122  1.118750135896710E-010
         123  7.344398195776902E-011
         124  4.818645872645448E-011
         125  3.164554378560254E-011
         126  2.076877283892890E-011
         127  1.364218310654060E-011
         128  8.956267187685312E-012
         129  5.883648602114137E-012
         130  3.865172769044984E-012
         131  2.538356748209025E-012
         132  1.668760468728250E-012
         133  1.096848747940088E-012
         134  7.210182205194051E-013
         135  4.746747082027424E-013
         136  3.133083304678136E-013
         137  2.076630099209745E-013
         138  1.391427478034878E-013
         139  9.553023448766724E-014
         140  6.901125596289445E-014
         141  5.477761897541757E-014
  ------------ 
  k    rhog_core(k)
       1   0.25999E-02   0.00000E+00
       2  -0.25388E-02   0.17345E-19
       3  -0.25388E-02   0.21625E-20
       4  -0.25388E-02   0.52435E-19
       5  -0.25388E-02  -0.54710E-19
       6  -0.25388E-02  -0.63464E-19
       7  -0.25388E-02  -0.69642E-19
       8   0.24794E-02  -0.56491E-19
       9   0.24794E-02  -0.98831E-19
      10   0.24794E-02   0.47766E-19
      11   0.24794E-02   0.51624E-19
      12   0.24794E-02  -0.22640E-19
      13   0.24794E-02   0.70533E-19
      14   0.24794E-02   0.41665E-19
      15   0.24794E-02   0.14618E-18
      16   0.24794E-02   0.47454E-19
      17   0.24794E-02   0.11361E-18
      18   0.24794E-02   0.12191E-18
      19   0.24794E-02   0.13985E-18
      20  -0.24217E-02   0.13311E-18
      21  -0.24217E-02  -0.17439E-19
      22  -0.24217E-02  -0.89161E-19
      23  -0.24217E-02  -0.11210E-18
      24  -0.24217E-02  -0.13796E-20
      25  -0.24217E-02  -0.12720E-18
      26  -0.24217E-02  -0.14531E-18
      27  -0.24217E-02  -0.19246E-18
      28   0.23655E-02   0.11404E-18
      29   0.23655E-02   0.10637E-18
      30   0.23655E-02   0.10296E-18
      31   0.23655E-02  -0.37139E-19
      32   0.23655E-02  -0.38318E-19
      33   0.23655E-02  -0.33077E-19
      34  -0.23109E-02  -0.62533E-19
      35  -0.23109E-02  -0.12337E-18
      36  -0.23109E-02  -0.16891E-18
      37  -0.23109E-02  -0.17518E-18
      38  -0.23109E-02  -0.85188E-19
      39  -0.23109E-02  -0.59222E-19
      40  -0.23109E-02   0.46871E-19
      41  -0.23109E-02   0.36908E-19
      42  -0.23109E-02  -0.13001E-18
      43  -0.23109E-02  -0.16754E-18
      44  -0.23109E-02  -0.62968E-19
      45  -0.23109E-02   0.21558E-19
      46  -0.23109E-02  -0.20753E-18
      47  -0.23109E-02  -0.25268E-19
      48  -0.23109E-02   0.61903E-19
      49  -0.23109E-02  -0.17766E-19
      50  -0.23109E-02  -0.18948E-18
      51  -0.23109E-02  -0.19866E-18
      52  -0.23109E-02  -0.45961E-19
      53  -0.23109E-02  -0.33003E-19
      54  -0.23109E-02   0.40308E-19
      55  -0.23109E-02   0.62765E-19
      56  -0.23109E-02  -0.27185E-19
      57  -0.23109E-02  -0.30714E-19
      58   0.22578E-02   0.70863E-19
      59   0.22578E-02   0.12421E-18
      60   0.22578E-02   0.17975E-18
      61   0.22578E-02   0.23948E-18
      62   0.22578E-02   0.86755E-19
      63   0.22578E-02   0.13444E-18
      64   0.22578E-02  -0.61670E-20
      65   0.22578E-02  -0.59804E-19
      66   0.22578E-02   0.72748E-19
      67   0.22578E-02   0.43280E-19
      68   0.22578E-02  -0.28596E-19
      69   0.22578E-02   0.12708E-19
      70   0.22578E-02   0.19169E-18
      71   0.22578E-02   0.23907E-18
      72   0.22578E-02   0.96445E-19
      73   0.22578E-02   0.42405E-19
      74   0.22578E-02   0.18827E-18
      75   0.22578E-02   0.10965E-18
      76   0.22578E-02   0.70842E-19
      77   0.22578E-02   0.92467E-19
      78   0.22578E-02  -0.32744E-19
      79   0.22578E-02   0.21535E-19
      80   0.22578E-02   0.68639E-19
      81   0.22578E-02   0.90140E-19
      82   0.21558E-02   0.18685E-18
      83   0.21558E-02   0.16634E-18
      84   0.21558E-02   0.88197E-19
      85   0.21558E-02   0.72377E-19
      86   0.21558E-02   0.16720E-18
      87   0.21558E-02   0.78245E-19
      88   0.21558E-02   0.54088E-19
      89   0.21558E-02  -0.74579E-19
      90   0.21558E-02   0.69738E-19
      91   0.21558E-02   0.88320E-19
      92   0.21558E-02  -0.54964E-19
      93   0.21558E-02  -0.61273E-19
      94  -0.21069E-02   0.29989E-19
      95  -0.21069E-02  -0.18224E-18
      96  -0.21069E-02  -0.22558E-18
      97  -0.21069E-02  -0.10848E-18
      98  -0.21069E-02  -0.39034E-19
      99  -0.21069E-02  -0.25508E-18
     100  -0.21069E-02  -0.13620E-18
 1492913   0.23334E-08   0.34362E-20
 1492914   0.23334E-08   0.71741E-20
 1492915   0.23334E-08   0.43617E-20
 1492916   0.23334E-08   0.19632E-20
 1492917   0.23334E-08   0.20960E-20
 1492918   0.30787E-09  -0.87531E-20
 1492919   0.30787E-09  -0.83610E-20
 1492920   0.30787E-09  -0.63925E-20
 1492921   0.30787E-09  -0.10118E-19
 1492922   0.30787E-09  -0.61526E-20
 1492923   0.30787E-09  -0.98672E-20
 1492924   0.30787E-09  -0.11326E-19
 1492925   0.30787E-09  -0.10932E-19
 1492926  -0.95643E-10   0.47148E-20
 1492927  -0.95643E-10   0.47581E-20
 1492928  -0.95643E-10   0.34890E-20
 1492929  -0.95643E-10   0.27638E-20
 1492930  -0.95643E-10   0.29743E-20
 1492931  -0.95643E-10   0.22824E-20
 1492932  -0.95643E-10   0.33967E-20
 1492933  -0.95643E-10   0.34814E-20
 1492934  -0.92103E-09  -0.35584E-20
 1492935  -0.92103E-09  -0.81582E-21
 1492936  -0.92103E-09  -0.20581E-20
 1492937  -0.92103E-09  -0.31122E-20
 1492938  -0.92103E-09  -0.42831E-23
 1492939  -0.92103E-09  -0.10767E-20
 1492940  -0.92103E-09  -0.53775E-20
 1492941  -0.92103E-09  -0.26315E-20
 1492942  -0.92103E-09  -0.10772E-20
 1492943  -0.92103E-09   0.13441E-20
 1492944   0.30787E-09   0.91749E-21
 1492945   0.30787E-09   0.14785E-20
 1492946   0.23334E-08  -0.27882E-20
 1492947   0.23334E-08  -0.30093E-20
 1492948   0.23334E-08  -0.43388E-20
 1492949   0.23334E-08  -0.33954E-20
 1492950   0.30787E-09  -0.42792E-20
 1492951   0.30787E-09  -0.29450E-20
 1492952  -0.92103E-09   0.35011E-20
 1492953  -0.92103E-09   0.32003E-20
 1492954  -0.92103E-09   0.45156E-20
 1492955  -0.92103E-09   0.42464E-20
 1492956   0.30787E-09  -0.37725E-20
 1492957   0.30787E-09  -0.24269E-20
 1492958   0.23334E-08  -0.54382E-20
 1492959   0.23334E-08  -0.45937E-20
 1492960   0.23334E-08  -0.85730E-21
 1492961   0.23334E-08  -0.11633E-20
 1492962   0.30787E-09   0.28605E-20
 1492963   0.30787E-09   0.34210E-20
 1492964  -0.92103E-09  -0.18387E-20
 1492965  -0.92103E-09   0.61405E-21
 1492966  -0.18717E-09   0.15149E-20
 1492967  -0.18717E-09   0.11908E-20
 1492968  -0.18717E-09   0.40420E-20
 1492969  -0.18717E-09   0.26337E-20
 1492970  -0.18717E-09   0.32100E-20
 1492971  -0.18717E-09   0.18309E-20
 1492972  -0.18717E-09   0.30176E-21
 1492973  -0.18717E-09   0.95765E-23
 1492974   0.19446E-08  -0.18907E-20
 1492975   0.19446E-08  -0.27326E-20
 1492976  -0.17531E-09  -0.11886E-20
 1492977  -0.17531E-09  -0.54789E-21
 1492978  -0.17531E-09  -0.33718E-21
 1492979  -0.17531E-09  -0.18959E-21
 1492980   0.19446E-08  -0.12216E-20
 1492981   0.19446E-08  -0.51814E-21
 1492982   0.19446E-08  -0.29585E-20
 1492983   0.19446E-08  -0.22795E-20
 1492984  -0.17531E-09   0.29116E-22
 1492985  -0.17531E-09   0.18002E-21
 1492986  -0.17531E-09  -0.12739E-20
 1492987  -0.17531E-09  -0.62857E-21
 1492988   0.19446E-08  -0.43360E-21
 1492989   0.19446E-08  -0.12979E-20
 1492990  -0.11005E-08  -0.70328E-21
 1492991  -0.11005E-08  -0.67043E-21
 1492992  -0.11005E-08  -0.59841E-21
 1492993  -0.11005E-08   0.13889E-21
 1492994  -0.11005E-08  -0.38449E-21
 1492995  -0.11005E-08   0.31893E-21
 1492996  -0.11005E-08   0.44563E-21
 1492997  -0.11005E-08   0.44473E-21
 1492998   0.25219E-08   0.15003E-20
 1492999   0.25219E-08   0.17158E-20
 1493000   0.32280E-09   0.17022E-20
 1493001   0.32280E-09   0.15578E-20
 1493002   0.32280E-09   0.18481E-20
 1493003   0.32280E-09   0.18559E-20
 1493004   0.25219E-08   0.30706E-20
 1493005   0.25219E-08   0.33357E-20
 1493006   0.25219E-08   0.32149E-20
 1493007   0.25219E-08   0.34438E-20
 1493008   0.32280E-09   0.17962E-20
 1493009   0.32280E-09   0.17754E-20
 1493010   0.32280E-09   0.17323E-20
 1493011   0.32280E-09   0.15603E-20
 1493012   0.25219E-08   0.13873E-20
 1493013   0.25219E-08   0.15672E-20
  ------------ 

     The initial density is read from file :
     ./cr.save/charge-density.dat

     Starting wfc are    9 randomized atomic wfcs +   16 random wfc

     total cpu time spent up to now is      145.4 secs

     per-process dynamical memory:  1440.5 Mb

     Self-consistent Calculation

     iteration #  1     ecut=   200.00 Ry     beta=0.70
     Davidson diagonalization with overlap
     c_bands:  1 eigenvalues not converged
     c_bands:  1 eigenvalues not converged
     c_bands:  1 eigenvalues not converged
     c_bands:  1 eigenvalues not converged
     ethr =  1.00E-05,  avg # of iterations = 18.0

     negative rho (up, down):  2.526E-06 1.003E-02

     total cpu time spent up to now is     1019.5 secs

     total energy              =     -37.97131150 Ry
     Harris-Foulkes estimate   =     -37.97246885 Ry
     estimated scf accuracy    <       0.00154634 Ry

     total magnetization       =     6.00 Bohr mag/cell
     absolute magnetization    =     6.00 Bohr mag/cell

     iteration #  2     ecut=   200.00 Ry     beta=0.70
     Davidson diagonalization with overlap
     ethr =  2.58E-05,  avg # of iterations =  1.8

     negative rho (up, down):  6.160E-06 4.730E-03

     total cpu time spent up to now is     1479.4 secs

     total energy              =     -37.97179875 Ry
     Harris-Foulkes estimate   =     -37.97148673 Ry
     estimated scf accuracy    <       0.00007084 Ry

     total magnetization       =     6.00 Bohr mag/cell
     absolute magnetization    =     6.00 Bohr mag/cell

     iteration #  3     ecut=   200.00 Ry     beta=0.70
     Davidson diagonalization with overlap
     c_bands:  1 eigenvalues not converged

     Maximum CPU time exceeded

     max_seconds     =    1700.00
     elapsed seconds =    1749.53
     Calculation stopped in k-point loop, point #     8
     Calculation stopped in scf loop at iteration #     2

     Writing output data file cr.save
 
     init_run     :     99.41s CPU    144.15s WALL (       1 calls)
     electrons    :   1554.14s CPU   1606.67s WALL (       1 calls)

     Called by init_run:
     wfcinit      :     79.13s CPU     80.61s WALL (       1 calls)
     potinit      :      1.14s CPU      1.68s WALL (       1 calls)

     Called by electrons:
     c_bands      :   1197.42s CPU   1207.95s WALL (       3 calls)
     sum_band     :     83.30s CPU    124.96s WALL (       2 calls)
     v_of_rho     :      1.55s CPU      1.71s WALL (       3 calls)
     mix_rho      :    272.38s CPU    273.58s WALL (       2 calls)

     Called by c_bands:
     init_us_2    :      1.14s CPU      2.23s WALL (      48 calls)
     cegterg      :   1194.84s CPU   1202.44s WALL (      24 calls)

     Called by sum_band:

     Called by *egterg:
     h_psi        :   1210.82s CPU   1211.11s WALL (     250 calls)
     g_psi        :      2.65s CPU      2.71s WALL (     218 calls)
     cdiaghg      :      0.35s CPU      0.56s WALL (     242 calls)

     Called by h_psi:
     h_psi:pot    :   1208.01s CPU   1208.05s WALL (     250 calls)
     h_psi:calbec :      2.39s CPU      2.45s WALL (     250 calls)
     vloc_psi     :   1202.06s CPU   1202.04s WALL (     250 calls)
     add_vuspsi   :      3.56s CPU      3.55s WALL (     250 calls)

     General routines
     calbec       :      2.38s CPU      2.45s WALL (     250 calls)
     fft          :      3.39s CPU      3.52s WALL (      19 calls)
     ffts         :    192.55s CPU    192.52s WALL (    1070 calls)
     fftw         :   1234.31s CPU   1234.20s WALL (    6866 calls)
     davcio       :      0.01s CPU      1.25s WALL (      12 calls)
 
 
     PWSCF        : 27m33.76s CPU    29m13.41s WALL

 
   This run was terminated on:  15:36:32  26Jul2018            

=------------------------------------------------------------------------------=
   JOB DONE.
=------------------------------------------------------------------------------=
