
     Program PWSCF v.6.2 starts on 27Jul2018 at 21:33:15 

     This program is part of the open-source Quantum ESPRESSO suite
     for quantum simulation of materials; please cite
         "P. Giannozzi et al., J. Phys.:Condens. Matter 21 395502 (2009);
         "P. Giannozzi et al., J. Phys.:Condens. Matter 29 465901 (2017);
          URL http://www.quantum-espresso.org", 
     in publications or presentations arising from this work. More details at
     http://www.quantum-espresso.org/quote

     Parallel version (MPI & OpenMP), running on      64 processor cores
     Number of MPI processes:                32
     Threads/MPI process:                     2

     MPI processes distributed on     1 nodes
     R & G space division:  proc/nbgrp/npool/nimage =      32
     Waiting for input...
     Reading input from standard input

     Current dimensions of program PWSCF are:
     Max number of different atomic species (ntypx) = 20
     Max number of k-points (npk) =  40000
     Max angular momentum in pseudopotentials (lmaxx) =  3

     Subspace diagonalization in iterative solution of the eigenvalue problem:
     one sub-group per band group will be used
     scalapack distributed-memory algorithm (size of sub-group:  4*  4 procs)

 
     Parallelization info
     --------------------
     sticks:   dense  smooth     PW     G-vecs:    dense   smooth      PW
     Min         102     102     26                25578    25578    3518
     Max         103     103     27                25602    25602    3561
     Sum        3265    3265    863               819001   819001  113521
 


     bravais-lattice index     =            0
     lattice parameter (alat)  =       6.2737  a.u.
     unit-cell volume          =    2142.8622 (a.u.)^3
     number of atoms/cell      =            4
     number of atomic types    =            1
     number of electrons       =        20.00
     number of Kohn-Sham states=           30
     kinetic-energy cutoff     =     200.0000  Ry
     charge density cutoff     =     800.0000  Ry
     convergence threshold     =      1.0E-09
     mixing beta               =       0.7000
     number of iterations used =            8  plain     mixing
     Exchange-correlation      = PZ ( 1  1  0  0 0 0)

     celldm(1)=   6.273702  celldm(2)=   0.000000  celldm(3)=   0.000000
     celldm(4)=   0.000000  celldm(5)=   0.000000  celldm(6)=   0.000000

     crystal axes: (cart. coord. in units of alat)
               a(1) = (   1.000000   0.000000   0.000000 )  
               a(2) = (   0.000000   1.299858   0.000000 )  
               a(3) = (   0.000000   0.000000   6.676157 )  

     reciprocal axes: (cart. coord. in units 2 pi/alat)
               b(1) = (  1.000000  0.000000  0.000000 )  
               b(2) = (  0.000000  0.769315  0.000000 )  
               b(3) = (  0.000000  0.000000  0.149787 )  


     PseudoPot. # 1 for P  read from file:
     ./P.UPF
     MD5 check sum: 9e9c0d5cfb0fc50679b9fd28a02c9e05
     Pseudo is Norm-conserving + core correction, Zval =  5.0
     Generated using "atomic" code by A. Dal Corso v.6.0 svn rev. 13079
     Using radial grid of 1147 points,  2 beta functions with: 
                l(1) =   0
                l(2) =   1

     atomic species   valence    mass     pseudopotential
       P               5.00    30.97400     P ( 1.00)

      2 Sym. Ops. (no inversion) found
          (note:  2 additional sym.ops. were found but ignored
           their fractional translations are incommensurate with FFT grid)

                                    s                        frac. trans.

      isym =  1     identity                                     

 cryst.   s( 1) = (     1          0          0      )
                  (     0          1          0      )
                  (     0          0          1      )

 cart.    s( 1) = (  1.0000000  0.0000000  0.0000000 )
                  (  0.0000000  1.0000000  0.0000000 )
                  (  0.0000000  0.0000000  1.0000000 )


      isym =  2     inv. 180 deg rotation - cart. axis [1,0,0]   

 cryst.   s( 2) = (    -1          0          0      )
                  (     0          1          0      )
                  (     0          0          1      )

 cart.    s( 2) = ( -1.0000000  0.0000000  0.0000000 )
                  (  0.0000000  1.0000000  0.0000000 )
                  (  0.0000000  0.0000000  1.0000000 )


   Cartesian axes

     site n.     atom                  positions (alat units)
         1          P    tau(   1) = (   0.5000000   0.5432110   1.2355230  )
         2          P    tau(   2) = (   0.5000000   0.7566476   1.8874023  )
         3          P    tau(   3) = (   0.0000000   1.1931401   1.8874023  )
         4          P    tau(   4) = (   0.0000000   0.1067183   1.2355230  )

   Crystallographic axes

     site n.     atom                  positions (cryst. coord.)
         1          P    tau(   1) = (  0.5000000  0.4179001  0.1850650  )
         2          P    tau(   2) = (  0.5000000  0.5821000  0.2827079  )
         3          P    tau(   3) = (  0.0000000  0.9179000  0.2827079  )
         4          P    tau(   4) = (  0.0000000  0.0821000  0.1850650  )

     number of k points=    36  gaussian smearing, width (Ry)=  0.0010
                       cart. coord. in units 2pi/alat
        k(    1) = (   0.5000000   0.0000000   0.0000000), wk =   0.0555556
        k(    2) = (   0.4750000   0.0000000   0.0000000), wk =   0.0555556
        k(    3) = (   0.4500000   0.0000000   0.0000000), wk =   0.0555556
        k(    4) = (   0.4250000   0.0000000   0.0000000), wk =   0.0555556
        k(    5) = (   0.4000000   0.0000000   0.0000000), wk =   0.0555556
        k(    6) = (   0.3750000   0.0000000   0.0000000), wk =   0.0555556
        k(    7) = (   0.3500000   0.0000000   0.0000000), wk =   0.0555556
        k(    8) = (   0.3250000   0.0000000   0.0000000), wk =   0.0555556
        k(    9) = (   0.3000000   0.0000000   0.0000000), wk =   0.0555556
        k(   10) = (   0.2750000   0.0000000   0.0000000), wk =   0.0555556
        k(   11) = (   0.2500000   0.0000000   0.0000000), wk =   0.0555556
        k(   12) = (   0.2250000   0.0000000   0.0000000), wk =   0.0555556
        k(   13) = (   0.2000000   0.0000000   0.0000000), wk =   0.0555556
        k(   14) = (   0.1750000   0.0000000   0.0000000), wk =   0.0555556
        k(   15) = (   0.1500000   0.0000000   0.0000000), wk =   0.0555556
        k(   16) = (   0.1250000   0.0000000   0.0000000), wk =   0.0555556
        k(   17) = (   0.1000000   0.0000000   0.0000000), wk =   0.0555556
        k(   18) = (   0.0750000   0.0000000   0.0000000), wk =   0.0555556
        k(   19) = (   0.0500000   0.0000000   0.0000000), wk =   0.0555556
        k(   20) = (   0.0250000   0.0000000   0.0000000), wk =   0.0555556
        k(   21) = (   0.0000000   0.0000000   0.0000000), wk =   0.0555556
        k(   22) = (   0.0000000   0.0256436   0.0000000), wk =   0.0555556
        k(   23) = (   0.0000000   0.0512879   0.0000000), wk =   0.0555556
        k(   24) = (   0.0000000   0.0769315   0.0000000), wk =   0.0555556
        k(   25) = (   0.0000000   0.1025750   0.0000000), wk =   0.0555556
        k(   26) = (   0.0000000   0.1282193   0.0000000), wk =   0.0555556
        k(   27) = (   0.0000000   0.1538629   0.0000000), wk =   0.0555556
        k(   28) = (   0.0000000   0.1795065   0.0000000), wk =   0.0555556
        k(   29) = (   0.0000000   0.2051508   0.0000000), wk =   0.0555556
        k(   30) = (   0.0000000   0.2307944   0.0000000), wk =   0.0555556
        k(   31) = (   0.0000000   0.2564379   0.0000000), wk =   0.0555556
        k(   32) = (   0.0000000   0.2820823   0.0000000), wk =   0.0555556
        k(   33) = (   0.0000000   0.3077258   0.0000000), wk =   0.0555556
        k(   34) = (   0.0000000   0.3333694   0.0000000), wk =   0.0555556
        k(   35) = (   0.0000000   0.3590137   0.0000000), wk =   0.0555556
        k(   36) = (   0.0000000   0.3846573   0.0000000), wk =   0.0555556

                       cryst. coord.
        k(    1) = (   0.5000000   0.0000000   0.0000000), wk =   0.0555556
        k(    2) = (   0.4750000   0.0000000   0.0000000), wk =   0.0555556
        k(    3) = (   0.4500000   0.0000000   0.0000000), wk =   0.0555556
        k(    4) = (   0.4250000   0.0000000   0.0000000), wk =   0.0555556
        k(    5) = (   0.4000000   0.0000000   0.0000000), wk =   0.0555556
        k(    6) = (   0.3750000   0.0000000   0.0000000), wk =   0.0555556
        k(    7) = (   0.3500000   0.0000000   0.0000000), wk =   0.0555556
        k(    8) = (   0.3250000   0.0000000   0.0000000), wk =   0.0555556
        k(    9) = (   0.3000000   0.0000000   0.0000000), wk =   0.0555556
        k(   10) = (   0.2750000   0.0000000   0.0000000), wk =   0.0555556
        k(   11) = (   0.2500000   0.0000000   0.0000000), wk =   0.0555556
        k(   12) = (   0.2250000   0.0000000   0.0000000), wk =   0.0555556
        k(   13) = (   0.2000000   0.0000000   0.0000000), wk =   0.0555556
        k(   14) = (   0.1750000   0.0000000   0.0000000), wk =   0.0555556
        k(   15) = (   0.1500000   0.0000000   0.0000000), wk =   0.0555556
        k(   16) = (   0.1250000   0.0000000   0.0000000), wk =   0.0555556
        k(   17) = (   0.1000000   0.0000000   0.0000000), wk =   0.0555556
        k(   18) = (   0.0750000   0.0000000   0.0000000), wk =   0.0555556
        k(   19) = (   0.0500000   0.0000000   0.0000000), wk =   0.0555556
        k(   20) = (   0.0250000   0.0000000   0.0000000), wk =   0.0555556
        k(   21) = (   0.0000000   0.0000000   0.0000000), wk =   0.0555556
        k(   22) = (   0.0000000   0.0333330   0.0000000), wk =   0.0555556
        k(   23) = (   0.0000000   0.0666670   0.0000000), wk =   0.0555556
        k(   24) = (   0.0000000   0.1000000   0.0000000), wk =   0.0555556
        k(   25) = (   0.0000000   0.1333330   0.0000000), wk =   0.0555556
        k(   26) = (   0.0000000   0.1666670   0.0000000), wk =   0.0555556
        k(   27) = (   0.0000000   0.2000000   0.0000000), wk =   0.0555556
        k(   28) = (   0.0000000   0.2333330   0.0000000), wk =   0.0555556
        k(   29) = (   0.0000000   0.2666670   0.0000000), wk =   0.0555556
        k(   30) = (   0.0000000   0.3000000   0.0000000), wk =   0.0555556
        k(   31) = (   0.0000000   0.3333330   0.0000000), wk =   0.0555556
        k(   32) = (   0.0000000   0.3666670   0.0000000), wk =   0.0555556
        k(   33) = (   0.0000000   0.4000000   0.0000000), wk =   0.0555556
        k(   34) = (   0.0000000   0.4333330   0.0000000), wk =   0.0555556
        k(   35) = (   0.0000000   0.4666670   0.0000000), wk =   0.0555556
        k(   36) = (   0.0000000   0.5000000   0.0000000), wk =   0.0555556

     Dense  grid:   819001 G-vectors     FFT dimensions: (  60,  75, 384)

     Dynamical RAM for                 wfc:       1.46 MB

     Dynamical RAM for     wfc (w. buffer):      54.17 MB

     Dynamical RAM for           str. fact:       0.39 MB

     Dynamical RAM for           local pot:       0.00 MB

     Dynamical RAM for          nlocal pot:       0.78 MB

     Dynamical RAM for                qrad:       0.19 MB

     Dynamical RAM for          rho,v,vnew:       2.41 MB

     Dynamical RAM for               rhoin:       0.80 MB

     Dynamical RAM for            rho*nmix:       6.25 MB

     Dynamical RAM for           G-vectors:       1.66 MB

     Dynamical RAM for          h,s,v(r/c):       0.04 MB

     Dynamical RAM for          <psi|beta>:       0.01 MB

     Dynamical RAM for                 psi:       5.86 MB

     Dynamical RAM for                hpsi:       5.86 MB

     Dynamical RAM for      wfcinit/wfcrot:       2.95 MB

     Estimated static dynamical RAM per process >      69.49 MB

     Estimated max dynamical RAM per process >      81.25 MB

     Estimated total dynamical RAM >       2.54 GB

     Initial potential from superposition of free atoms

     starting charge   19.99943, renormalised to   20.00000

     negative rho (up, down):  1.362E-05 0.000E+00
     Starting wfc are   16 randomized atomic wfcs +   14 random wfc

     total cpu time spent up to now is        4.1 secs

     Self-consistent Calculation

     iteration #  1     ecut=   200.00 Ry     beta= 0.70
     Davidson diagonalization with overlap
     ethr =  1.00E-02,  avg # of iterations =  8.7

     Threshold (ethr) on eigenvalues was too large:
     Diagonalizing with lowered threshold

     Davidson diagonalization with overlap
     ethr =  5.11E-04,  avg # of iterations =  1.3

     negative rho (up, down):  1.908E-06 0.000E+00

     total cpu time spent up to now is       32.7 secs

     total energy              =     -86.79243730 Ry
     Harris-Foulkes estimate   =     -86.83330307 Ry
     estimated scf accuracy    <       0.10112202 Ry

     iteration #  2     ecut=   200.00 Ry     beta= 0.70
     Davidson diagonalization with overlap
     ethr =  5.06E-04,  avg # of iterations =  3.3

     negative rho (up, down):  2.279E-07 0.000E+00

     total cpu time spent up to now is       41.4 secs

     total energy              =     -86.79458818 Ry
     Harris-Foulkes estimate   =     -86.80678921 Ry
     estimated scf accuracy    <       0.01879984 Ry

     iteration #  3     ecut=   200.00 Ry     beta= 0.70
     Davidson diagonalization with overlap
     ethr =  9.40E-05,  avg # of iterations =  3.3

     total cpu time spent up to now is       51.1 secs

     total energy              =     -86.79857725 Ry
     Harris-Foulkes estimate   =     -86.80582896 Ry
     estimated scf accuracy    <       0.01555002 Ry

     iteration #  4     ecut=   200.00 Ry     beta= 0.70
     Davidson diagonalization with overlap
     ethr =  7.78E-05,  avg # of iterations =  2.4

     total cpu time spent up to now is       59.5 secs

     total energy              =     -86.80169278 Ry
     Harris-Foulkes estimate   =     -86.80173766 Ry
     estimated scf accuracy    <       0.00009840 Ry

     iteration #  5     ecut=   200.00 Ry     beta= 0.70
     Davidson diagonalization with overlap
     ethr =  4.92E-07,  avg # of iterations =  5.1

     total cpu time spent up to now is       71.0 secs

     total energy              =     -86.80172881 Ry
     Harris-Foulkes estimate   =     -86.80173237 Ry
     estimated scf accuracy    <       0.00000628 Ry

     iteration #  6     ecut=   200.00 Ry     beta= 0.70
     Davidson diagonalization with overlap
     ethr =  3.14E-08,  avg # of iterations =  1.7

     total cpu time spent up to now is       78.7 secs

     total energy              =     -86.80172750 Ry
     Harris-Foulkes estimate   =     -86.80173406 Ry
     estimated scf accuracy    <       0.00002536 Ry

     iteration #  7     ecut=   200.00 Ry     beta= 0.70
     Davidson diagonalization with overlap
     ethr =  3.14E-08,  avg # of iterations =  1.0

     total cpu time spent up to now is       86.0 secs

     total energy              =     -86.80173090 Ry
     Harris-Foulkes estimate   =     -86.80173105 Ry
     estimated scf accuracy    <       0.00000062 Ry

     iteration #  8     ecut=   200.00 Ry     beta= 0.70
     Davidson diagonalization with overlap
     ethr =  3.10E-09,  avg # of iterations =  1.0

     total cpu time spent up to now is       93.6 secs

     total energy              =     -86.80173098 Ry
     Harris-Foulkes estimate   =     -86.80173098 Ry
     estimated scf accuracy    <          3.2E-09 Ry

     iteration #  9     ecut=   200.00 Ry     beta= 0.70
     Davidson diagonalization with overlap
     ethr =  1.61E-11,  avg # of iterations =  3.0

     total cpu time spent up to now is      102.9 secs

     End of self-consistent calculation

          k = 0.5000 0.0000 0.0000 (102536 PWs)   bands (ev):

   -14.4617 -14.4617 -11.8098 -11.8098  -6.7759  -6.7759  -4.8051  -4.8051
    -4.2518  -4.2518  -0.8750  -0.8750  -0.3135  -0.3135   1.0208   1.0208
     4.5118   4.5118   5.4833   5.4833   5.9724   5.9724   6.4550   6.4550
     6.7551   6.7551   7.8561   7.8561   7.8703   7.8704

     occupation numbers 
     1.0000   1.0000   1.0000   1.0000   1.0000   1.0000   1.0000   1.0000
     1.0000   1.0000   0.0000   0.0000   0.0000   0.0000   0.0000   0.0000
     0.0000   0.0000   0.0000   0.0000   0.0000   0.0000   0.0000   0.0000
     0.0000   0.0000   0.0000   0.0000   0.0000   0.0000

          k = 0.4750 0.0000 0.0000 (102514 PWs)   bands (ev):

   -14.7267 -14.1878 -12.0966 -11.5102  -6.8442  -6.7357  -4.9019  -4.7353
    -4.3097  -4.1530  -0.8940  -0.8054  -0.5311  -0.0770   0.7824   1.2689
     4.4557   4.5204   5.1653   5.7565   5.8165   6.2093   6.2211   6.4342
     6.7575   7.0886   7.5791   7.6204   8.0963   8.1275

     occupation numbers 
     1.0000   1.0000   1.0000   1.0000   1.0000   1.0000   1.0000   1.0000
     1.0000   1.0000   0.0000   0.0000   0.0000   0.0000   0.0000   0.0000
     0.0000   0.0000   0.0000   0.0000   0.0000   0.0000   0.0000   0.0000
     0.0000   0.0000   0.0000   0.0000   0.0000   0.0000

          k = 0.4500 0.0000 0.0000 (102510 PWs)   bands (ev):

   -14.9819 -13.9064 -12.3704 -11.1985  -6.9319  -6.7296  -5.0207  -4.6957
    -4.3231  -4.0202  -0.8577  -0.7257  -0.6942   0.1753   0.5583   1.5233
     4.3816   4.4571   4.8629   5.5442   6.0680   6.1277   6.1643   6.4985
     7.0872   7.3204   7.3621   7.4304   8.2789   8.3150

     occupation numbers 
     1.0000   1.0000   1.0000   1.0000   1.0000   1.0000   1.0000   1.0000
     1.0000   1.0000   0.0000   0.0000   0.0000   0.0000   0.0000   0.0000
     0.0000   0.0000   0.0000   0.0000   0.0000   0.0000   0.0000   0.0000
     0.0000   0.0000   0.0000   0.0000   0.0000   0.0000

          k = 0.4250 0.0000 0.0000 (102494 PWs)   bands (ev):

   -15.2262 -13.6192 -12.6307 -10.8752  -7.0294  -6.7585  -5.1553  -4.6864
    -4.2947  -3.8617  -0.8928  -0.7648  -0.5564   0.3583   0.4402   1.7810
     4.3115   4.3251   4.5764   5.3087   5.8365   6.0387   6.5254   6.7733
     7.0993   7.1050   7.4158   7.7680   8.2042   8.4111

     occupation numbers 
     1.0000   1.0000   1.0000   1.0000   1.0000   1.0000   1.0000   1.0000
     1.0000   1.0000   0.0000   0.0000   0.0000   0.0000   0.0000   0.0000
     0.0000   0.0000   0.0000   0.0000   0.0000   0.0000   0.0000   0.0000
     0.0000   0.0000   0.0000   0.0000   0.0000   0.0000

          k = 0.4000 0.0000 0.0000 (102464 PWs)   bands (ev):

   -15.4591 -13.3281 -12.8773 -10.5411  -7.1281  -6.8185  -5.3002  -4.7045
    -4.2335  -3.6858  -1.0268  -0.6176  -0.4267   0.2119   0.7147   2.0386
     4.1491   4.2600   4.3060   5.0614   5.5612   6.0500   6.8546   6.8966
     6.9093   6.9477   7.6206   8.0594   8.0655   8.5288

     occupation numbers 
     1.0000   1.0000   1.0000   1.0000   1.0000   1.0000   1.0000   1.0000
     1.0000   1.0000   0.0000   0.0000   0.0000   0.0000   0.0000   0.0000
     0.0000   0.0000   0.0000   0.0000   0.0000   0.0000   0.0000   0.0000
     0.0000   0.0000   0.0000   0.0000   0.0000   0.0000

          k = 0.3750 0.0000 0.0000 (102414 PWs)   bands (ev):

   -15.6798 -13.1099 -13.0356 -10.1973  -7.2205  -6.9023  -5.4501  -4.7445
    -4.1530  -3.4994  -1.1209  -0.4210  -0.3894   0.1981   0.9958   2.2918
     3.9533   4.0519   4.2374   4.8171   5.3021   6.0140   6.5908   6.6141
     6.9053   7.2661   7.7951   8.2202   8.3494   8.4381

     occupation numbers 
     1.0000   1.0000   1.0000   1.0000   1.0000   1.0000   1.0000   1.0000
     1.0000   1.0000   0.0000   0.0000   0.0000   0.0000   0.0000   0.0000
     0.0000   0.0000   0.0000   0.0000   0.0000   0.0000   0.0000   0.0000
     0.0000   0.0000   0.0000   0.0000   0.0000   0.0000

          k = 0.3500 0.0000 0.0000 (102380 PWs)   bands (ev):

   -15.8880 -13.3282 -12.7450  -9.8449  -7.2996  -7.0022  -5.6011  -4.8001
    -4.0683  -3.3090  -1.1678  -0.4818  -0.1811   0.3499   1.2803   2.5354
     3.7528   3.8141   4.2513   4.5829   5.0594   5.9009   6.0095   6.3857
     6.9600   7.5386   8.1274   8.1391   8.2424   8.2702

     occupation numbers 
     1.0000   1.0000   1.0000   1.0000   1.0000   1.0000   1.0000   1.0000
     1.0000   1.0000   0.0000   0.0000   0.0000   0.0000   0.0000   0.0000
     0.0000   0.0000   0.0000   0.0000   0.0000   0.0000   0.0000   0.0000
     0.0000   0.0000   0.0000   0.0000   0.0000   0.0000

          k = 0.3250 0.0000 0.0000 (102394 PWs)   bands (ev):

   -16.0831 -13.5322 -12.4600  -9.4857  -7.3594  -7.1112  -5.7497  -4.8643
    -3.9931  -3.1202  -1.1606  -0.6269   0.0955   0.5866   1.5650   2.7619
     3.5562   3.5929   4.3070   4.3618   4.8333   5.3702   5.7433   6.1706
     7.0318   7.2264   8.0515   8.2171   8.2573   8.3122

     occupation numbers 
     1.0000   1.0000   1.0000   1.0000   1.0000   1.0000   1.0000   1.0000
     1.0000   1.0000   0.0000   0.0000   0.0000   0.0000   0.0000   0.0000
     0.0000   0.0000   0.0000   0.0000   0.0000   0.0000   0.0000   0.0000
     0.0000   0.0000   0.0000   0.0000   0.0000   0.0000

          k = 0.3000 0.0000 0.0000 (102376 PWs)   bands (ev):

   -16.2649 -13.7216 -12.1850  -9.1220  -7.3939  -7.2239  -5.8934  -4.9307
    -3.9377  -2.9380  -1.0953  -0.7812   0.4022   0.8609   1.8462   2.9613
     3.3681   3.3884   4.1555   4.3986   4.6238   4.7336   5.5720   5.9695
     6.6560   7.0428   7.8685   8.2571   8.2921   8.5380

     occupation numbers 
     1.0000   1.0000   1.0000   1.0000   1.0000   1.0000   1.0000   1.0000
     1.0000   1.0000   0.0000   0.0000   0.0000   0.0000   0.0000   0.0000
     0.0000   0.0000   0.0000   0.0000   0.0000   0.0000   0.0000   0.0000
     0.0000   0.0000   0.0000   0.0000   0.0000   0.0000

          k = 0.2750 0.0000 0.0000 (102398 PWs)   bands (ev):

   -16.4330 -13.8963 -11.9251  -8.7567  -7.3976  -7.3359  -6.0302  -4.9929
    -3.9068  -2.7668  -0.9719  -0.9313   0.7324   1.1560   2.1173   3.1181
     3.1913   3.2011   3.9646   4.0632   4.4310   4.5874   5.4020   5.7830
     6.0954   6.9709   7.6956   8.1657   8.3353   8.6060

     occupation numbers 
     1.0000   1.0000   1.0000   1.0000   1.0000   1.0000   1.0000   1.0000
     1.0000   1.0000   0.0000   0.0000   0.0000   0.0000   0.0000   0.0000
     0.0000   0.0000   0.0000   0.0000   0.0000   0.0000   0.0000   0.0000
     0.0000   0.0000   0.0000   0.0000   0.0000   0.0000

          k = 0.2500 0.0000 0.0000 (102382 PWs)   bands (ev):

   -16.5871 -14.0561 -11.6857  -8.3944  -7.4443  -7.3654  -6.1585  -5.0446
    -3.8998  -2.6100  -1.0723  -0.7953   1.0774   1.4632   2.3523   3.0274
     3.0317   3.2092   3.4821   3.7897   4.2552   4.7853   5.2401   5.5962
     5.6115   6.8402   7.5340   7.9919   8.4064   8.8578

     occupation numbers 
     1.0000   1.0000   1.0000   1.0000   1.0000   1.0000   1.0000   1.0000
     1.0000   1.0000   0.0000   0.0000   0.0000   0.0000   0.0000   0.0000
     0.0000   0.0000   0.0000   0.0000   0.0000   0.0000   0.0000   0.0000
     0.0000   0.0000   0.0000   0.0000   0.0000   0.0000

          k = 0.2250 0.0000 0.0000 (102344 PWs)   bands (ev):

   -16.7272 -14.2010 -11.4717  -8.0410  -7.5467  -7.2934  -6.2771  -5.0790
    -3.9125  -2.4704  -1.2022  -0.5740   1.4230   1.7751   2.3877   2.8775
     2.8818   3.1163   3.2054   3.6310   4.0963   5.0352   5.0894   5.2033
     5.4551   6.6763   7.3846   7.8143   8.5129   9.1789

     occupation numbers 
     1.0000   1.0000   1.0000   1.0000   1.0000   1.0000   1.0000   1.0000
     1.0000   1.0000   0.0000   0.0000   0.0000   0.0000   0.0000   0.0000
     0.0000   0.0000   0.0000   0.0000   0.0000   0.0000   0.0000   0.0000
     0.0000   0.0000   0.0000   0.0000   0.0000   0.0000

          k = 0.2000 0.0000 0.0000 (102360 PWs)   bands (ev):

   -16.8529 -14.3309 -11.2871  -7.7053  -7.6414  -7.1797  -6.3851  -5.0881
    -3.9388  -2.3497  -1.3199  -0.3178   1.7340   1.9858   2.0808   2.7423
     2.7577   3.1047   3.2168   3.4886   3.9547   4.9514   4.9537   5.3139
     5.3264   6.4924   7.2479   7.6468   8.6569   9.5243

     occupation numbers 
     1.0000   1.0000   1.0000   1.0000   1.0000   1.0000   1.0000   1.0000
     1.0000   1.0000   0.0000   0.0000   0.0000   0.0000   0.0000   0.0000
     0.0000   0.0000   0.0000   0.0000   0.0000   0.0000   0.0000   0.0000
     0.0000   0.0000   0.0000   0.0000   0.0000   0.0000

          k = 0.1750 0.0000 0.0000 (102336 PWs)   bands (ev):

   -16.9641 -14.4457 -11.1336  -7.7271  -7.3984  -7.0259  -6.4817  -5.0627
    -3.9730  -2.2487  -1.4246  -0.0372   1.4500   1.9070   2.3402   2.6221
     2.6936   3.0204   3.3627   3.4898   3.8307   4.8267   4.8393   5.1878
     5.6503   6.2943   7.1241   7.4937   8.8348   9.7065

     occupation numbers 
     1.0000   1.0000   1.0000   1.0000   1.0000   1.0000   1.0000   1.0000
     1.0000   1.0000   0.0000   0.0000   0.0000   0.0000   0.0000   0.0000
     0.0000   0.0000   0.0000   0.0000   0.0000   0.0000   0.0000   0.0000
     0.0000   0.0000   0.0000   0.0000   0.0000   0.0000

          k = 0.1500 0.0000 0.0000 (102312 PWs)   bands (ev):

   -17.0608 -14.5453 -11.0110  -7.8029  -7.1335  -6.8371  -6.5664  -4.9936
    -4.0103  -2.1673  -1.5159   0.2574   0.9160   1.7960   2.4118   2.5174
     2.8244   3.1493   3.2534   3.7255   3.8079   4.7155   4.8134   5.0766
     5.9969   6.0858   7.0136   7.3575   9.0043   9.3380

     occupation numbers 
     1.0000   1.0000   1.0000   1.0000   1.0000   1.0000   1.0000   1.0000
     1.0000   1.0000   0.0000   0.0000   0.0000   0.0000   0.0000   0.0000
     0.0000   0.0000   0.0000   0.0000   0.0000   0.0000   0.0000   0.0000
     0.0000   0.0000   0.0000   0.0000   0.0000   0.0000

          k = 0.1250 0.0000 0.0000 (102340 PWs)   bands (ev):

   -17.1428 -14.6297 -10.9167  -7.8680  -6.9217  -6.6387  -6.6232  -4.8764
    -4.0469  -2.1053  -1.5936   0.4143   0.5549   1.4829   2.3586   2.4283
     3.0765   3.1606   3.4550   3.6423   4.1488   4.6172   4.8382   4.9799
     5.8717   6.3529   6.9163   7.2402   8.7548   9.3671

     occupation numbers 
     1.0000   1.0000   1.0000   1.0000   1.0000   1.0000   1.0000   1.0000
     1.0000   1.0000   0.0000   0.0000   0.0000   0.0000   0.0000   0.0000
     0.0000   0.0000   0.0000   0.0000   0.0000   0.0000   0.0000   0.0000
     0.0000   0.0000   0.0000   0.0000   0.0000   0.0000

          k = 0.1000 0.0000 0.0000 (102299 PWs)   bands (ev):

   -17.2099 -14.6988 -10.8470  -7.9220  -6.7668  -6.6983  -6.3984  -4.7174
    -4.0799  -2.0622  -1.6574  -0.0371   0.8424   1.1158   2.2961   2.3548
     3.0844   3.3090   3.5978   3.8096   4.5021   4.5313   4.8971   4.9036
     5.6608   6.6970   6.8328   7.1431   8.2831   9.3181

     occupation numbers 
     1.0000   1.0000   1.0000   1.0000   1.0000   1.0000   1.0000   1.0000
     1.0000   1.0000   0.0000   0.0000   0.0000   0.0000   0.0000   0.0000
     0.0000   0.0000   0.0000   0.0000   0.0000   0.0000   0.0000   0.0000
     0.0000   0.0000   0.0000   0.0000   0.0000   0.0000

          k = 0.0750 0.0000 0.0000 (102271 PWs)   bands (ev):

   -17.2622 -14.7526 -10.7979  -7.9643  -6.7449  -6.6632  -6.1818  -4.5374
    -4.1074  -2.0373  -1.7071  -0.4197   0.7672   1.1040   2.2436   2.2971
     3.0248   3.4141   3.6694   4.1322   4.4575   4.8279   4.8552   5.0309
     5.4668   6.7640   6.9893   7.0672   7.7964   8.9774

     occupation numbers 
     1.0000   1.0000   1.0000   1.0000   1.0000   1.0000   1.0000   1.0000
     1.0000   1.0000   0.0000   0.0000   0.0000   0.0000   0.0000   0.0000
     0.0000   0.0000   0.0000   0.0000   0.0000   0.0000   0.0000   0.0000
     0.0000   0.0000   0.0000   0.0000   0.0000   0.0000

          k = 0.0500 0.0000 0.0000 (102275 PWs)   bands (ev):

   -17.2996 -14.7910 -10.7657  -7.9947  -6.7783  -6.6000  -5.9973  -4.3685
    -4.1280  -2.0289  -1.7427  -0.7124   0.4799   1.3191   2.2050   2.2552
     2.9818   3.4076   3.8238   4.3542   4.3971   4.7727   5.1840   5.2573
     5.3082   6.7117   7.0129   7.1605   7.3236   8.7990

     occupation numbers 
     1.0000   1.0000   1.0000   1.0000   1.0000   1.0000   1.0000   1.0000
     1.0000   1.0000   0.0000   0.0000   0.0000   0.0000   0.0000   0.0000
     0.0000   0.0000   0.0000   0.0000   0.0000   0.0000   0.0000   0.0000
     0.0000   0.0000   0.0000   0.0000   0.0000   0.0000

          k = 0.0250 0.0000 0.0000 (102291 PWs)   bands (ev):

   -17.3221 -14.8141 -10.7476  -8.0131  -6.7984  -6.5666  -5.8712  -4.2466
    -4.1406  -2.0311  -1.7641  -0.8957   0.2889   1.4637   2.1815   2.2293
     2.9557   3.3913   3.9410   4.3551   4.4620   4.7348   5.2038   5.4406
     5.5501   6.6786   6.9088   6.9804   7.1770   8.8447

     occupation numbers 
     1.0000   1.0000   1.0000   1.0000   1.0000   1.0000   1.0000   1.0000
     1.0000   1.0000   0.0000   0.0000   0.0000   0.0000   0.0000   0.0000
     0.0000   0.0000   0.0000   0.0000   0.0000   0.0000   0.0000   0.0000
     0.0000   0.0000   0.0000   0.0000   0.0000   0.0000

          k = 0.0000 0.0000 0.0000 (102301 PWs)   bands (ev):

   -17.3296 -14.8218 -10.7417  -8.0192  -6.8051  -6.5562  -5.8261  -4.2019
    -4.1449  -2.0337  -1.7712  -0.9578   0.2216   1.5151   2.1737   2.2205
     2.9470   3.3850   3.9838   4.3396   4.4920   4.7208   5.1674   5.5438
     5.7194   6.6671   6.7047   6.9695   7.1506   8.9797

     occupation numbers 
     1.0000   1.0000   1.0000   1.0000   1.0000   1.0000   1.0000   1.0000
     1.0000   1.0000   0.0000   0.0000   0.0000   0.0000   0.0000   0.0000
     0.0000   0.0000   0.0000   0.0000   0.0000   0.0000   0.0000   0.0000
     0.0000   0.0000   0.0000   0.0000   0.0000   0.0000

          k = 0.0000 0.0256 0.0000 (102315 PWs)   bands (ev):

   -17.3232 -14.8257 -10.7595  -8.0442  -6.7700  -6.5661  -5.8211  -4.2041
    -4.0987  -2.1554  -1.6565  -0.9534   0.2115   1.5000   2.1922   2.2294
     2.9557   3.3969   3.9330   4.2390   4.4929   4.7312   5.2486   5.5838
     5.7304   6.6660   6.7409   6.9832   7.1118   9.0112

     occupation numbers 
     1.0000   1.0000   1.0000   1.0000   1.0000   1.0000   1.0000   1.0000
     1.0000   1.0000   0.0000   0.0000   0.0000   0.0000   0.0000   0.0000
     0.0000   0.0000   0.0000   0.0000   0.0000   0.0000   0.0000   0.0000
     0.0000   0.0000   0.0000   0.0000   0.0000   0.0000

          k = 0.0000 0.0513 0.0000 (102301 PWs)   bands (ev):

   -17.3040 -14.8376 -10.8097  -8.1191  -6.6675  -6.5887  -5.8062  -4.2107
    -3.9680  -2.3610  -1.4708  -0.9398   0.1812   1.4565   2.2466   2.2562
     2.9818   3.4327   3.7958   4.0113   4.5148   4.7623   5.3449   5.6894
     5.8199   6.6526   6.8472   7.0157   7.0248   8.6699

     occupation numbers 
     1.0000   1.0000   1.0000   1.0000   1.0000   1.0000   1.0000   1.0000
     1.0000   1.0000   0.0000   0.0000   0.0000   0.0000   0.0000   0.0000
     0.0000   0.0000   0.0000   0.0000   0.0000   0.0000   0.0000   0.0000
     0.0000   0.0000   0.0000   0.0000   0.0000   0.0000

          k = 0.0000 0.0769 0.0000 (102333 PWs)   bands (ev):

   -17.2721 -14.8583 -10.8839  -8.2421  -6.6084  -6.5056  -5.7814  -4.2221
    -3.7713  -2.5851  -1.2781  -0.9156   0.1299   1.3900   2.3005   2.3335
     3.0247   3.4922   3.6020   3.7495   4.5576   4.8137   5.3219   5.8332
     6.0365   6.5848   6.9256   7.0180   7.0958   8.3422

     occupation numbers 
     1.0000   1.0000   1.0000   1.0000   1.0000   1.0000   1.0000   1.0000
     1.0000   1.0000   0.0000   0.0000   0.0000   0.0000   0.0000   0.0000
     0.0000   0.0000   0.0000   0.0000   0.0000   0.0000   0.0000   0.0000
     0.0000   0.0000   0.0000   0.0000   0.0000   0.0000

          k = 0.0000 0.1026 0.0000 (102321 PWs)   bands (ev):

   -17.2278 -14.8892 -10.9713  -8.4075  -6.6121  -6.2947  -5.7470  -4.2388
    -3.5298  -2.8188  -1.0877  -0.8765   0.0571   1.3082   2.3620   2.4482
     3.0817   3.3763   3.4899   3.5752   4.6189   4.8846   5.2336   5.9943
     6.2996   6.4241   6.8981   7.1964   7.2448   8.0069

     occupation numbers 
     1.0000   1.0000   1.0000   1.0000   1.0000   1.0000   1.0000   1.0000
     1.0000   1.0000   0.0000   0.0000   0.0000   0.0000   0.0000   0.0000
     0.0000   0.0000   0.0000   0.0000   0.0000   0.0000   0.0000   0.0000
     0.0000   0.0000   0.0000   0.0000   0.0000   0.0000

          k = 0.0000 0.1282 0.0000 (102293 PWs)   bands (ev):

   -17.1711 -14.9319 -11.0606  -8.6061  -6.5935  -6.0455  -5.7033  -4.2616
    -3.2628  -3.0586  -0.9242  -0.7972  -0.0369   1.2192   2.4396   2.5854
     3.1238   3.1351   3.2733   3.6811   4.6983   4.9734   5.1294   6.1613
     6.2073   6.5507   6.8987   7.3131   7.5176   7.6920

     occupation numbers 
     1.0000   1.0000   1.0000   1.0000   1.0000   1.0000   1.0000   1.0000
     1.0000   1.0000   0.0000   0.0000   0.0000   0.0000   0.0000   0.0000
     0.0000   0.0000   0.0000   0.0000   0.0000   0.0000   0.0000   0.0000
     0.0000   0.0000   0.0000   0.0000   0.0000   0.0000

          k = 0.0000 0.1539 0.0000 (102305 PWs)   bands (ev):

   -17.1024 -14.9877 -11.1415  -8.8276  -6.5514  -5.7679  -5.6507  -4.2911
    -3.3020  -2.9874  -0.8337  -0.6305  -0.1497   1.1311   2.5306   2.7406
     2.8886   2.9668   3.2897   3.8089   4.7954   5.0323   5.0763   5.9737
     6.3300   6.7656   6.8523   7.3784   7.4549   7.8248

     occupation numbers 
     1.0000   1.0000   1.0000   1.0000   1.0000   1.0000   1.0000   1.0000
     1.0000   1.0000   0.0000   0.0000   0.0000   0.0000   0.0000   0.0000
     0.0000   0.0000   0.0000   0.0000   0.0000   0.0000   0.0000   0.0000
     0.0000   0.0000   0.0000   0.0000   0.0000   0.0000

          k = 0.0000 0.1795 0.0000 (102309 PWs)   bands (ev):

   -17.0220 -15.0580 -11.2059  -9.0625  -6.4872  -5.5897  -5.4705  -4.3282
    -3.5461  -2.7202  -0.7675  -0.4250  -0.2754   1.0509   2.6104   2.6437
     2.7767   2.9102   3.3970   3.9572   4.9100   4.9555   5.1831   5.7475
     6.4993   6.6806   6.9237   7.2855   7.3600   7.6941

     occupation numbers 
     1.0000   1.0000   1.0000   1.0000   1.0000   1.0000   1.0000   1.0000
     1.0000   1.0000   0.0000   0.0000   0.0000   0.0000   0.0000   0.0000
     0.0000   0.0000   0.0000   0.0000   0.0000   0.0000   0.0000   0.0000
     0.0000   0.0000   0.0000   0.0000   0.0000   0.0000

          k = 0.0000 0.2052 0.0000 (102297 PWs)   bands (ev):

   -16.9306 -15.1434 -11.2477  -9.3030  -6.4031  -5.5210  -5.1612  -4.3733
    -3.7881  -2.4802  -0.7005  -0.4028  -0.2081   0.9843   2.4052   2.4936
     2.8045   3.0917   3.5274   4.1241   4.9043   5.0429   5.2529   5.5703
     6.4295   6.6704   6.8684   7.2079   7.2456   7.5030

     occupation numbers 
     1.0000   1.0000   1.0000   1.0000   1.0000   1.0000   1.0000   1.0000
     1.0000   1.0000   0.0000   0.0000   0.0000   0.0000   0.0000   0.0000
     0.0000   0.0000   0.0000   0.0000   0.0000   0.0000   0.0000   0.0000
     0.0000   0.0000   0.0000   0.0000   0.0000   0.0000

          k = 0.0000 0.2308 0.0000 (102261 PWs)   bands (ev):

   -16.8285 -15.2434 -11.2631  -9.5433  -6.3008  -5.4452  -4.8490  -4.4269
    -4.0226  -2.2919  -0.6303  -0.5132   0.0140   0.9359   2.1766   2.2946
     2.9381   3.2841   3.6764   4.3074   4.8803   5.1758   5.1926   5.5305
     6.1954   6.5899   6.8446   6.8668   7.3737   7.5688

     occupation numbers 
     1.0000   1.0000   1.0000   1.0000   1.0000   1.0000   1.0000   1.0000
     1.0000   1.0000   0.0000   0.0000   0.0000   0.0000   0.0000   0.0000
     0.0000   0.0000   0.0000   0.0000   0.0000   0.0000   0.0000   0.0000
     0.0000   0.0000   0.0000   0.0000   0.0000   0.0000

          k = 0.0000 0.2564 0.0000 (102295 PWs)   bands (ev):

   -16.7167 -15.3570 -11.2499  -9.7786  -6.1819  -5.3633  -4.5650  -4.4890
    -4.2214  -2.1854  -0.5815  -0.5590   0.2368   0.9091   1.9607   2.0970
     3.0936   3.4873   3.8428   4.5049   4.8776   5.0088   5.3593   5.4967
     6.0802   6.2744   6.5249   7.0233   7.2482   7.5715

     occupation numbers 
     1.0000   1.0000   1.0000   1.0000   1.0000   1.0000   1.0000   1.0000
     1.0000   1.0000   0.0000   0.0000   0.0000   0.0000   0.0000   0.0000
     0.0000   0.0000   0.0000   0.0000   0.0000   0.0000   0.0000   0.0000
     0.0000   0.0000   0.0000   0.0000   0.0000   0.0000

          k = 0.0000 0.2821 0.0000 (102278 PWs)   bands (ev):

   -16.5958 -15.4823 -11.2077 -10.0054  -6.0476  -5.2763  -4.5625  -4.5593
    -4.1336  -2.1839  -0.5893  -0.4906   0.4553   0.9061   1.7600   1.9064
     3.2648   3.7017   4.0262   4.7124   4.8373   4.8857   5.3481   5.5413
     5.9585   6.0660   6.2733   6.9303   7.2077   7.5696

     occupation numbers 
     1.0000   1.0000   1.0000   1.0000   1.0000   1.0000   1.0000   1.0000
     1.0000   1.0000   0.0000   0.0000   0.0000   0.0000   0.0000   0.0000
     0.0000   0.0000   0.0000   0.0000   0.0000   0.0000   0.0000   0.0000
     0.0000   0.0000   0.0000   0.0000   0.0000   0.0000

          k = 0.0000 0.3077 0.0000 (102328 PWs)   bands (ev):

   -16.4670 -15.6166 -11.1372 -10.2206  -5.8989  -5.1854  -4.7626  -4.6369
    -3.8403  -2.2846  -0.5441  -0.4308   0.6645   0.9283   1.5765   1.7240
     3.4498   3.9275   4.2257   4.6667   4.8911   4.9185   5.1849   5.6343
     5.7553   5.8202   6.3590   6.6109   7.3067   7.3986

     occupation numbers 
     1.0000   1.0000   1.0000   1.0000   1.0000   1.0000   1.0000   1.0000
     1.0000   1.0000   0.0000   0.0000   0.0000   0.0000   0.0000   0.0000
     0.0000   0.0000   0.0000   0.0000   0.0000   0.0000   0.0000   0.0000
     0.0000   0.0000   0.0000   0.0000   0.0000   0.0000

          k = 0.0000 0.3334 0.0000 (102334 PWs)   bands (ev):

   -16.3316 -15.7573 -11.0399 -10.4217  -5.7368  -5.0918  -4.9737  -4.7209
    -3.5353  -2.4627  -0.4754  -0.3865   0.8606   0.9760   1.4120   1.5496
     3.6473   4.1644   4.4394   4.4860   4.8799   4.9757   5.2205   5.3524
     5.5319   5.9556   6.3058   6.5334   7.0377   7.4964

     occupation numbers 
     1.0000   1.0000   1.0000   1.0000   1.0000   1.0000   1.0000   1.0000
     1.0000   1.0000   0.0000   0.0000   0.0000   0.0000   0.0000   0.0000
     0.0000   0.0000   0.0000   0.0000   0.0000   0.0000   0.0000   0.0000
     0.0000   0.0000   0.0000   0.0000   0.0000   0.0000

          k = 0.0000 0.3590 0.0000 (102354 PWs)   bands (ev):

   -16.1910 -15.9016 -10.9176 -10.6064  -5.5622  -5.1793  -4.9969  -4.8099
    -3.2374  -2.6918  -0.4125  -0.3654   1.0429   1.0491   1.2683   1.3813
     3.8552   4.2819   4.4120   4.6559   4.8327   4.9198   5.1124   5.2408
     5.4678   5.9856   6.2086   6.6224   6.8859   7.2564

     occupation numbers 
     1.0000   1.0000   1.0000   1.0000   1.0000   1.0000   1.0000   1.0000
     1.0000   1.0000   0.0000   0.0000   0.0000   0.0000   0.0000   0.0000
     0.0000   0.0000   0.0000   0.0000   0.0000   0.0000   0.0000   0.0000
     0.0000   0.0000   0.0000   0.0000   0.0000   0.0000

          k = 0.0000 0.3847 0.0000 (102396 PWs)   bands (ev):

   -16.0470 -16.0470 -10.7724 -10.7724  -5.3760  -5.3760  -4.9025  -4.9025
    -2.9538  -2.9538  -0.3736  -0.3736   1.1468   1.1468   1.2144   1.2145
     4.0694   4.0694   4.6443   4.6444   4.8671   4.8672   5.0500   5.0501
     5.7192   5.7193   6.4339   6.4340   7.0367   7.0368

     occupation numbers 
     1.0000   1.0000   1.0000   1.0000   1.0000   1.0000   1.0000   1.0000
     1.0000   1.0000   0.0000   0.0000   0.0000   0.0000   0.0000   0.0000
     0.0000   0.0000   0.0000   0.0000   0.0000   0.0000   0.0000   0.0000
     0.0000   0.0000   0.0000   0.0000   0.0000   0.0000

     the Fermi energy is    -1.9067 ev

!    total energy              =     -86.80173098 Ry
     Harris-Foulkes estimate   =     -86.80173098 Ry
     estimated scf accuracy    <          5.7E-10 Ry

     The total energy is the sum of the following terms:

     one-electron contribution =    -437.56059452 Ry
     hartree contribution      =     222.16410054 Ry
     xc contribution           =     -48.78616613 Ry
     ewald contribution        =     177.38092913 Ry
     smearing contrib. (-TS)   =      -0.00000000 Ry

     convergence has been achieved in   9 iterations

     Forces acting on atoms (cartesian axes, Ry/au):

     atom    1 type  1   force =     0.00000000   -0.00193898    0.03527162
     atom    2 type  1   force =     0.00000000    0.00193935   -0.03527145
     atom    3 type  1   force =     0.00000000   -0.00193777   -0.03527418
     atom    4 type  1   force =     0.00000000    0.00193740    0.03527401
     The non-local contrib.  to forces
     atom    1 type  1   force =     0.00000000   -0.25366368    0.22106563
     atom    2 type  1   force =     0.00000000    0.25366764   -0.22105965
     atom    3 type  1   force =     0.00000000   -0.25367278   -0.22105160
     atom    4 type  1   force =     0.00000000    0.25367171    0.22105762
     The ionic contribution  to forces
     atom    1 type  1   force =    -0.00000000    1.39635482   -9.83417623
     atom    2 type  1   force =    -0.00000000   -1.39635602    9.83417623
     atom    3 type  1   force =     0.00000000    1.39635608    9.83417596
     atom    4 type  1   force =     0.00000000   -1.39635488   -9.83417596
     The local contribution  to forces
     atom    1 type  1   force =    -0.00000000   -1.16523355    9.66674594
     atom    2 type  1   force =    -0.00000000    1.16522966   -9.66676330
     atom    3 type  1   force =     0.00000000   -1.16520880   -9.66677867
     atom    4 type  1   force =    -0.00000000    1.16521283    9.66676520
     The core correction contribution to forces
     atom    1 type  1   force =     0.00000000    0.02059211   -0.01835794
     atom    2 type  1   force =     0.00000000   -0.02059114    0.01835778
     atom    3 type  1   force =    -0.00000000    0.02059323    0.01835587
     atom    4 type  1   force =    -0.00000000   -0.02059310   -0.01835731
     The Hubbard contrib.    to forces
     atom    1 type  1   force =     0.00000000    0.00000000    0.00000000
     atom    2 type  1   force =     0.00000000    0.00000000    0.00000000
     atom    3 type  1   force =     0.00000000    0.00000000    0.00000000
     atom    4 type  1   force =     0.00000000    0.00000000    0.00000000
     The SCF correction term to forces
     atom    1 type  1   force =     0.00000000    0.00001166   -0.00000602
     atom    2 type  1   force =     0.00000000   -0.00001045    0.00001724
     atom    3 type  1   force =    -0.00000000   -0.00000517    0.00002401
     atom    4 type  1   force =    -0.00000000    0.00000119   -0.00001579

     Total force =     0.070652     Total SCF correction =     0.000038

     Writing output data file p.save
 
     init_run     :      6.45s CPU      3.65s WALL (       1 calls)
     electrons    :    189.66s CPU    101.99s WALL (       1 calls)
     forces       :      1.20s CPU      0.63s WALL (       1 calls)

     Called by init_run:
     wfcinit      :      5.29s CPU      2.85s WALL (       1 calls)
     wfcinit:atom :      0.08s CPU      0.03s WALL (      36 calls)
     wfcinit:wfcr :      4.89s CPU      2.64s WALL (      36 calls)
     potinit      :      0.33s CPU      0.17s WALL (       1 calls)

     Called by electrons:
     c_bands      :    164.35s CPU     85.79s WALL (      10 calls)
     sum_band     :     24.73s CPU     12.82s WALL (      10 calls)
     v_of_rho     :      0.11s CPU      0.06s WALL (      10 calls)
     v_h          :      0.06s CPU      0.04s WALL (      10 calls)
     v_xc         :      0.05s CPU      0.03s WALL (      11 calls)
     mix_rho      :      0.22s CPU      0.12s WALL (      10 calls)

     Called by c_bands:
     init_us_2    :      1.38s CPU      0.73s WALL (     792 calls)
     cegterg      :    160.87s CPU     83.24s WALL (     360 calls)

     Called by sum_band:

     Called by *egterg:
     h_psi        :    113.72s CPU     59.00s WALL (    1503 calls)
     g_psi        :      0.97s CPU      0.47s WALL (    1107 calls)
     cdiaghg      :     18.24s CPU      9.54s WALL (    1431 calls)
     cegterg:over :      9.50s CPU      4.78s WALL (    1107 calls)
     cegterg:upda :     11.42s CPU      5.85s WALL (    1107 calls)
     cegterg:last :      4.48s CPU      2.33s WALL (     396 calls)
     cdiaghg:chol :      0.66s CPU      0.36s WALL (    1431 calls)
     cdiaghg:inve :      0.20s CPU      0.09s WALL (    1431 calls)
     cdiaghg:para :      1.06s CPU      0.53s WALL (    2862 calls)

     Called by h_psi:
     h_psi:pot    :    111.14s CPU     57.68s WALL (    1503 calls)
     h_psi:calbec :      3.00s CPU      1.58s WALL (    1503 calls)
     vloc_psi     :    105.85s CPU     54.93s WALL (    1503 calls)
     add_vuspsi   :      2.26s CPU      1.15s WALL (    1503 calls)

     General routines
     calbec       :      3.27s CPU      1.69s WALL (    1647 calls)
     fft          :      0.24s CPU      0.14s WALL (      45 calls)
     fftw         :    114.19s CPU     58.44s WALL (   67366 calls)
 
     Parallel routines
     fft_scatt_xy :     28.62s CPU      6.54s WALL (   67411 calls)
     fft_scatt_yz :     41.37s CPU     18.76s WALL (   67411 calls)
 
     PWSCF        :  3m24.52s CPU     1m56.21s WALL

 
   This run was terminated on:  21:35:11  27Jul2018            

=------------------------------------------------------------------------------=
   JOB DONE.
=------------------------------------------------------------------------------=
