
     Program PWSCF v.6.2 starts on 27Jul2018 at 21:32:18 

     This program is part of the open-source Quantum ESPRESSO suite
     for quantum simulation of materials; please cite
         "P. Giannozzi et al., J. Phys.:Condens. Matter 21 395502 (2009);
         "P. Giannozzi et al., J. Phys.:Condens. Matter 29 465901 (2017);
          URL http://www.quantum-espresso.org", 
     in publications or presentations arising from this work. More details at
     http://www.quantum-espresso.org/quote

     Parallel version (MPI & OpenMP), running on      64 processor cores
     Number of MPI processes:                32
     Threads/MPI process:                     2

     MPI processes distributed on     1 nodes
     R & G space division:  proc/nbgrp/npool/nimage =      32
     Waiting for input...
     Reading input from standard input

     Current dimensions of program PWSCF are:
     Max number of different atomic species (ntypx) = 20
     Max number of k-points (npk) =  40000
     Max angular momentum in pseudopotentials (lmaxx) =  3

     Subspace diagonalization in iterative solution of the eigenvalue problem:
     one sub-group per band group will be used
     scalapack distributed-memory algorithm (size of sub-group:  4*  4 procs)

 
     Parallelization info
     --------------------
     sticks:   dense  smooth     PW     G-vecs:    dense   smooth      PW
     Min         102     102     27                25578    25578    3619
     Max         103     103     28                25602    25602    3632
     Sum        3265    3265    887               819001   819001  116035
 


     bravais-lattice index     =            0
     lattice parameter (alat)  =       6.2737  a.u.
     unit-cell volume          =    2142.8622 (a.u.)^3
     number of atoms/cell      =            4
     number of atomic types    =            1
     number of electrons       =        20.00
     number of Kohn-Sham states=           14
     kinetic-energy cutoff     =     200.0000  Ry
     charge density cutoff     =     800.0000  Ry
     convergence threshold     =      1.0E-09
     mixing beta               =       0.7000
     number of iterations used =            8  plain     mixing
     Exchange-correlation      = PZ ( 1  1  0  0 0 0)

     celldm(1)=   6.273702  celldm(2)=   0.000000  celldm(3)=   0.000000
     celldm(4)=   0.000000  celldm(5)=   0.000000  celldm(6)=   0.000000

     crystal axes: (cart. coord. in units of alat)
               a(1) = (   1.000000   0.000000   0.000000 )  
               a(2) = (   0.000000   1.299858   0.000000 )  
               a(3) = (   0.000000   0.000000   6.676157 )  

     reciprocal axes: (cart. coord. in units 2 pi/alat)
               b(1) = (  1.000000  0.000000  0.000000 )  
               b(2) = (  0.000000  0.769315  0.000000 )  
               b(3) = (  0.000000  0.000000  0.149787 )  


     PseudoPot. # 1 for P  read from file:
     ./P.UPF
     MD5 check sum: 9e9c0d5cfb0fc50679b9fd28a02c9e05
     Pseudo is Norm-conserving + core correction, Zval =  5.0
     Generated using "atomic" code by A. Dal Corso v.6.0 svn rev. 13079
     Using radial grid of 1147 points,  2 beta functions with: 
                l(1) =   0
                l(2) =   1

     atomic species   valence    mass     pseudopotential
       P               5.00    30.97400     P ( 1.00)

      2 Sym. Ops. (no inversion) found
          (note:  2 additional sym.ops. were found but ignored
           their fractional translations are incommensurate with FFT grid)

                                    s                        frac. trans.

      isym =  1     identity                                     

 cryst.   s( 1) = (     1          0          0      )
                  (     0          1          0      )
                  (     0          0          1      )

 cart.    s( 1) = (  1.0000000  0.0000000  0.0000000 )
                  (  0.0000000  1.0000000  0.0000000 )
                  (  0.0000000  0.0000000  1.0000000 )


      isym =  2     inv. 180 deg rotation - cart. axis [1,0,0]   

 cryst.   s( 2) = (    -1          0          0      )
                  (     0          1          0      )
                  (     0          0          1      )

 cart.    s( 2) = ( -1.0000000  0.0000000  0.0000000 )
                  (  0.0000000  1.0000000  0.0000000 )
                  (  0.0000000  0.0000000  1.0000000 )


   Cartesian axes

     site n.     atom                  positions (alat units)
         1          P    tau(   1) = (   0.5000000   0.5432110   1.2355230  )
         2          P    tau(   2) = (   0.5000000   0.7566476   1.8874023  )
         3          P    tau(   3) = (   0.0000000   1.1931401   1.8874023  )
         4          P    tau(   4) = (   0.0000000   0.1067183   1.2355230  )

   Crystallographic axes

     site n.     atom                  positions (cryst. coord.)
         1          P    tau(   1) = (  0.5000000  0.4179001  0.1850650  )
         2          P    tau(   2) = (  0.5000000  0.5821000  0.2827079  )
         3          P    tau(   3) = (  0.0000000  0.9179000  0.2827079  )
         4          P    tau(   4) = (  0.0000000  0.0821000  0.1850650  )

     number of k points=    35  gaussian smearing, width (Ry)=  0.0010
                       cart. coord. in units 2pi/alat
        k(    1) = (   0.0000000   0.0000000   0.0000000), wk =   0.0185185
        k(    2) = (   0.0000000   0.0854794   0.0000000), wk =   0.0370370
        k(    3) = (   0.0000000   0.1709588   0.0000000), wk =   0.0370370
        k(    4) = (   0.0000000   0.2564382   0.0000000), wk =   0.0370370
        k(    5) = (   0.0000000   0.3419176   0.0000000), wk =   0.0370370
        k(    6) = (   0.0833333   0.0000000   0.0000000), wk =   0.0370370
        k(    7) = (   0.0833333   0.0854794   0.0000000), wk =   0.0740741
        k(    8) = (   0.0833333   0.1709588   0.0000000), wk =   0.0740741
        k(    9) = (   0.0833333   0.2564382   0.0000000), wk =   0.0740741
        k(   10) = (   0.0833333   0.3419176   0.0000000), wk =   0.0740741
        k(   11) = (   0.1666667   0.0000000   0.0000000), wk =   0.0370370
        k(   12) = (   0.1666667   0.0854794   0.0000000), wk =   0.0740741
        k(   13) = (   0.1666667   0.1709588   0.0000000), wk =   0.0740741
        k(   14) = (   0.1666667   0.2564382   0.0000000), wk =   0.0740741
        k(   15) = (   0.1666667   0.3419176   0.0000000), wk =   0.0740741
        k(   16) = (   0.2500000   0.0000000   0.0000000), wk =   0.0370370
        k(   17) = (   0.2500000   0.0854794   0.0000000), wk =   0.0740741
        k(   18) = (   0.2500000   0.1709588   0.0000000), wk =   0.0740741
        k(   19) = (   0.2500000   0.2564382   0.0000000), wk =   0.0740741
        k(   20) = (   0.2500000   0.3419176   0.0000000), wk =   0.0740741
        k(   21) = (   0.3333333   0.0000000   0.0000000), wk =   0.0370370
        k(   22) = (   0.3333333   0.0854794   0.0000000), wk =   0.0740741
        k(   23) = (   0.3333333   0.1709588   0.0000000), wk =   0.0740741
        k(   24) = (   0.3333333   0.2564382   0.0000000), wk =   0.0740741
        k(   25) = (   0.3333333   0.3419176   0.0000000), wk =   0.0740741
        k(   26) = (   0.4166667   0.0000000   0.0000000), wk =   0.0370370
        k(   27) = (   0.4166667   0.0854794   0.0000000), wk =   0.0740741
        k(   28) = (   0.4166667   0.1709588   0.0000000), wk =   0.0740741
        k(   29) = (   0.4166667   0.2564382   0.0000000), wk =   0.0740741
        k(   30) = (   0.4166667   0.3419176   0.0000000), wk =   0.0740741
        k(   31) = (  -0.5000000   0.0000000   0.0000000), wk =   0.0185185
        k(   32) = (  -0.5000000   0.0854794   0.0000000), wk =   0.0370370
        k(   33) = (  -0.5000000   0.1709588   0.0000000), wk =   0.0370370
        k(   34) = (  -0.5000000   0.2564382   0.0000000), wk =   0.0370370
        k(   35) = (  -0.5000000   0.3419176   0.0000000), wk =   0.0370370

                       cryst. coord.
        k(    1) = (   0.0000000   0.0000000   0.0000000), wk =   0.0185185
        k(    2) = (   0.0000000   0.1111111   0.0000000), wk =   0.0370370
        k(    3) = (   0.0000000   0.2222222   0.0000000), wk =   0.0370370
        k(    4) = (   0.0000000   0.3333333   0.0000000), wk =   0.0370370
        k(    5) = (   0.0000000   0.4444444   0.0000000), wk =   0.0370370
        k(    6) = (   0.0833333   0.0000000   0.0000000), wk =   0.0370370
        k(    7) = (   0.0833333   0.1111111   0.0000000), wk =   0.0740741
        k(    8) = (   0.0833333   0.2222222   0.0000000), wk =   0.0740741
        k(    9) = (   0.0833333   0.3333333   0.0000000), wk =   0.0740741
        k(   10) = (   0.0833333   0.4444444   0.0000000), wk =   0.0740741
        k(   11) = (   0.1666667   0.0000000   0.0000000), wk =   0.0370370
        k(   12) = (   0.1666667   0.1111111   0.0000000), wk =   0.0740741
        k(   13) = (   0.1666667   0.2222222   0.0000000), wk =   0.0740741
        k(   14) = (   0.1666667   0.3333333   0.0000000), wk =   0.0740741
        k(   15) = (   0.1666667   0.4444444   0.0000000), wk =   0.0740741
        k(   16) = (   0.2500000   0.0000000   0.0000000), wk =   0.0370370
        k(   17) = (   0.2500000   0.1111111   0.0000000), wk =   0.0740741
        k(   18) = (   0.2500000   0.2222222   0.0000000), wk =   0.0740741
        k(   19) = (   0.2500000   0.3333333   0.0000000), wk =   0.0740741
        k(   20) = (   0.2500000   0.4444444   0.0000000), wk =   0.0740741
        k(   21) = (   0.3333333   0.0000000   0.0000000), wk =   0.0370370
        k(   22) = (   0.3333333   0.1111111   0.0000000), wk =   0.0740741
        k(   23) = (   0.3333333   0.2222222   0.0000000), wk =   0.0740741
        k(   24) = (   0.3333333   0.3333333   0.0000000), wk =   0.0740741
        k(   25) = (   0.3333333   0.4444444   0.0000000), wk =   0.0740741
        k(   26) = (   0.4166667   0.0000000   0.0000000), wk =   0.0370370
        k(   27) = (   0.4166667   0.1111111   0.0000000), wk =   0.0740741
        k(   28) = (   0.4166667   0.2222222   0.0000000), wk =   0.0740741
        k(   29) = (   0.4166667   0.3333333   0.0000000), wk =   0.0740741
        k(   30) = (   0.4166667   0.4444444   0.0000000), wk =   0.0740741
        k(   31) = (  -0.5000000   0.0000000   0.0000000), wk =   0.0185185
        k(   32) = (  -0.5000000   0.1111111   0.0000000), wk =   0.0370370
        k(   33) = (  -0.5000000   0.2222222   0.0000000), wk =   0.0370370
        k(   34) = (  -0.5000000   0.3333333   0.0000000), wk =   0.0370370
        k(   35) = (  -0.5000000   0.4444444   0.0000000), wk =   0.0370370

     Dense  grid:   819001 G-vectors     FFT dimensions: (  60,  75, 384)

     Dynamical RAM for                 wfc:       0.68 MB

     Dynamical RAM for     wfc (w. buffer):      24.59 MB

     Dynamical RAM for           str. fact:       0.39 MB

     Dynamical RAM for           local pot:       0.00 MB

     Dynamical RAM for          nlocal pot:       0.78 MB

     Dynamical RAM for                qrad:       0.19 MB

     Dynamical RAM for          rho,v,vnew:       2.41 MB

     Dynamical RAM for               rhoin:       0.80 MB

     Dynamical RAM for            rho*nmix:       6.25 MB

     Dynamical RAM for           G-vectors:       1.66 MB

     Dynamical RAM for          h,s,v(r/c):       0.01 MB

     Dynamical RAM for          <psi|beta>:       0.00 MB

     Dynamical RAM for                 psi:       2.73 MB

     Dynamical RAM for                hpsi:       2.73 MB

     Dynamical RAM for      wfcinit/wfcrot:       1.57 MB

     Estimated static dynamical RAM per process >      39.92 MB

     Estimated max dynamical RAM per process >      45.40 MB

     Estimated total dynamical RAM >       1.42 GB

     Initial potential from superposition of free atoms

     starting charge   19.99943, renormalised to   20.00000

     negative rho (up, down):  1.362E-05 0.000E+00
     Starting wfc are   16 randomized atomic wfcs

     total cpu time spent up to now is        2.6 secs

     Self-consistent Calculation

     iteration #  1     ecut=   200.00 Ry     beta= 0.70
     Davidson diagonalization with overlap
     ethr =  1.00E-02,  avg # of iterations =  3.1

     Threshold (ethr) on eigenvalues was too large:
     Diagonalizing with lowered threshold

     Davidson diagonalization with overlap
     ethr =  3.43E-04,  avg # of iterations =  2.5

     negative rho (up, down):  3.475E-07 0.000E+00

     total cpu time spent up to now is       11.7 secs

     total energy              =     -87.09312696 Ry
     Harris-Foulkes estimate   =     -87.11816224 Ry
     estimated scf accuracy    <       0.06600581 Ry

     iteration #  2     ecut=   200.00 Ry     beta= 0.70
     Davidson diagonalization with overlap
     ethr =  3.30E-04,  avg # of iterations =  2.0

     total cpu time spent up to now is       15.4 secs

     total energy              =     -87.09606116 Ry
     Harris-Foulkes estimate   =     -87.09921402 Ry
     estimated scf accuracy    <       0.00558612 Ry

     iteration #  3     ecut=   200.00 Ry     beta= 0.70
     Davidson diagonalization with overlap
     ethr =  2.79E-05,  avg # of iterations =  3.1

     total cpu time spent up to now is       20.3 secs

     total energy              =     -87.09668494 Ry
     Harris-Foulkes estimate   =     -87.09872738 Ry
     estimated scf accuracy    <       0.00386089 Ry

     iteration #  4     ecut=   200.00 Ry     beta= 0.70
     Davidson diagonalization with overlap
     ethr =  1.93E-05,  avg # of iterations =  2.0

     total cpu time spent up to now is       24.5 secs

     total energy              =     -87.09762568 Ry
     Harris-Foulkes estimate   =     -87.09769139 Ry
     estimated scf accuracy    <       0.00013533 Ry

     iteration #  5     ecut=   200.00 Ry     beta= 0.70
     Davidson diagonalization with overlap
     ethr =  6.77E-07,  avg # of iterations =  3.4

     total cpu time spent up to now is       30.3 secs

     total energy              =     -87.09764315 Ry
     Harris-Foulkes estimate   =     -87.09768303 Ry
     estimated scf accuracy    <       0.00014406 Ry

     iteration #  6     ecut=   200.00 Ry     beta= 0.70
     Davidson diagonalization with overlap
     ethr =  6.77E-07,  avg # of iterations =  2.0

     total cpu time spent up to now is       34.0 secs

     total energy              =     -87.09766313 Ry
     Harris-Foulkes estimate   =     -87.09766402 Ry
     estimated scf accuracy    <       0.00000285 Ry

     iteration #  7     ecut=   200.00 Ry     beta= 0.70
     Davidson diagonalization with overlap
     ethr =  1.43E-08,  avg # of iterations =  2.3

     total cpu time spent up to now is       37.9 secs

     total energy              =     -87.09766377 Ry
     Harris-Foulkes estimate   =     -87.09766374 Ry
     estimated scf accuracy    <       0.00000004 Ry

     iteration #  8     ecut=   200.00 Ry     beta= 0.70
     Davidson diagonalization with overlap
     ethr =  1.82E-10,  avg # of iterations =  3.4

     total cpu time spent up to now is       43.1 secs

     total energy              =     -87.09766376 Ry
     Harris-Foulkes estimate   =     -87.09766380 Ry
     estimated scf accuracy    <          9.2E-09 Ry

     iteration #  9     ecut=   200.00 Ry     beta= 0.70
     Davidson diagonalization with overlap
     ethr =  4.59E-11,  avg # of iterations =  2.0

     total cpu time spent up to now is       47.2 secs

     End of self-consistent calculation

          k = 0.0000 0.0000 0.0000 (102301 PWs)   bands (ev):

   -17.3825 -14.8530 -10.8172  -8.0211  -6.8225  -6.5696  -5.8933  -4.2694
    -4.1540  -2.0478  -1.7524  -0.9307   0.2291   1.4733

     occupation numbers 
     1.0000   1.0000   1.0000   1.0000   1.0000   1.0000   1.0000   1.0000
     1.0000   1.0000   0.0000   0.0000   0.0000   0.0000

          k = 0.0000 0.0855 0.0000 (102341 PWs)   bands (ev):

   -17.3118 -14.9013 -10.9780  -8.2989  -6.6186  -6.4652  -5.8385  -4.2953
    -3.7074  -2.6652  -1.2022  -0.8793   0.1106   1.3261

     occupation numbers 
     1.0000   1.0000   1.0000   1.0000   1.0000   1.0000   1.0000   1.0000
     1.0000   1.0000   0.0000   0.0000   0.0000   0.0000

          k = 0.0000 0.1710 0.0000 (102337 PWs)   bands (ev):

   -17.1035 -15.0736 -11.2339  -8.9935  -6.5110  -5.6793  -5.6090  -4.3851
    -3.4657  -2.8261  -0.7613  -0.4853  -0.2401   1.0460

     occupation numbers 
     1.0000   1.0000   1.0000   1.0000   1.0000   1.0000   1.0000   1.0000
     1.0000   1.0000   0.0000   0.0000   0.0000   0.0000

          k = 0.0000 0.2564 0.0000 (102295 PWs)   bands (ev):

   -16.7704 -15.4050 -11.2808  -9.7911  -6.1800  -5.4330  -4.6096  -4.5608
    -4.2220  -2.2175  -0.5867  -0.5343   0.2468   0.8853

     occupation numbers 
     1.0000   1.0000   1.0000   1.0000   1.0000   1.0000   1.0000   1.0000
     1.0000   1.0000   0.0000   0.0000   0.0000   0.0000

          k = 0.0000 0.3419 0.0000 (102342 PWs)   bands (ev):

   -16.3389 -15.8574 -11.0224 -10.5004  -5.6783  -5.1313  -5.0435  -4.8222
    -3.4811  -2.5794  -0.4443  -0.3578   0.9293   0.9773

     occupation numbers 
     1.0000   1.0000   1.0000   1.0000   1.0000   1.0000   1.0000   1.0000
     1.0000   1.0000   0.0000   0.0000   0.0000   0.0000

          k = 0.0833 0.0000 0.0000 (102285 PWs)   bands (ev):

   -17.2996 -14.7677 -10.8892  -7.9540  -6.7484  -6.7119  -6.3068  -4.6500
    -4.1086  -2.0552  -1.6736  -0.2874   0.8748   0.9858

     occupation numbers 
     1.0000   1.0000   1.0000   1.0000   1.0000   1.0000   1.0000   1.0000
     1.0000   1.0000   0.0000   0.0000   0.0000   0.0000

          k = 0.0833 0.0855 0.0000 (102295 PWs)   bands (ev):

   -17.2291 -14.8169 -11.0243  -8.2517  -6.6844  -6.6791  -5.9804  -4.7830
    -3.6488  -2.6397  -1.1670  -0.2279   0.6132   1.0240

     occupation numbers 
     1.0000   1.0000   1.0000   1.0000   1.0000   1.0000   1.0000   1.0000
     1.0000   1.0000   0.0000   0.0000   0.0000   0.0000

          k = 0.0833 0.1710 0.0000 (102303 PWs)   bands (ev):

   -17.0214 -14.9916 -11.2390  -8.9557  -6.5031  -6.4948  -5.1704  -4.9502
    -3.4302  -2.8964  -0.5904  -0.0029   0.3071   0.9184

     occupation numbers 
     1.0000   1.0000   1.0000   1.0000   1.0000   1.0000   1.0000   1.0000
     1.0000   1.0000   0.0000   0.0000   0.0000   0.0000

          k = 0.0833 0.2564 0.0000 (102302 PWs)   bands (ev):

   -16.6892 -15.3252 -11.2574  -9.7499  -6.2137  -6.1439  -5.1796  -4.3385
    -4.0669  -2.4476  -0.1699   0.1603   0.4206   0.8662

     occupation numbers 
     1.0000   1.0000   1.0000   1.0000   1.0000   1.0000   1.0000   1.0000
     1.0000   1.0000   0.0000   0.0000   0.0000   0.0000

          k = 0.0833 0.3419 0.0000 (102299 PWs)   bands (ev):

   -16.2589 -15.7781 -10.9845 -10.4577  -5.8654  -5.6369  -5.4937  -4.9928
    -3.2233  -2.5823   0.0203   0.0447   0.7627   0.9866

     occupation numbers 
     1.0000   1.0000   1.0000   1.0000   1.0000   1.0000   1.0000   1.0000
     1.0000   1.0000   0.0000   0.0000   0.0000   0.0000

          k = 0.1667 0.0000 0.0000 (102308 PWs)   bands (ev):

   -17.0518 -14.5122 -11.1688  -7.7581  -7.3379  -7.0059  -6.5293  -5.0722
    -3.9968  -2.2272  -1.4394   0.0357   1.2654   1.8752

     occupation numbers 
     1.0000   1.0000   1.0000   1.0000   1.0000   1.0000   1.0000   1.0000
     1.0000   1.0000   0.0000   0.0000   0.0000   0.0000

          k = 0.1667 0.0855 0.0000 (102324 PWs)   bands (ev):

   -16.9819 -14.5649 -11.2302  -8.1801  -7.3152  -7.0669  -5.8971  -5.3395
    -3.6404  -2.6530  -1.0715  -0.0311   1.2772   2.0214

     occupation numbers 
     1.0000   1.0000   1.0000   1.0000   1.0000   1.0000   1.0000   1.0000
     1.0000   1.0000   0.0000   0.0000   0.0000   0.0000

          k = 0.1667 0.1710 0.0000 (102321 PWs)   bands (ev):

   -16.7762 -14.7483 -11.3120  -8.8982  -7.4557  -6.7186  -5.6882  -4.9172
    -3.3569  -3.2316  -0.4878   0.2068   0.9433   1.7247

     occupation numbers 
     1.0000   1.0000   1.0000   1.0000   1.0000   1.0000   1.0000   1.0000
     1.0000   1.0000   0.0000   0.0000   0.0000   0.0000

          k = 0.1667 0.2564 0.0000 (102280 PWs)   bands (ev):

   -16.4473 -15.0892 -11.2313  -9.6674  -7.3389  -6.4988  -5.8339  -4.2776
    -3.7938  -3.0942   0.1453   0.4394   0.9023   1.6998

     occupation numbers 
     1.0000   1.0000   1.0000   1.0000   1.0000   1.0000   1.0000   1.0000
     1.0000   1.0000   0.0000   0.0000   0.0000   0.0000

          k = 0.1667 0.3419 0.0000 (102358 PWs)   bands (ev):

   -16.0208 -15.5431 -10.9070 -10.3648  -7.0549  -6.7070  -5.4815  -4.8842
    -3.2737  -3.0842   0.3841   0.8058   0.8262   1.4224

     occupation numbers 
     1.0000   1.0000   1.0000   1.0000   1.0000   1.0000   1.0000   1.0000
     1.0000   1.0000   0.0000   0.0000   0.0000   0.0000

          k = 0.2500 0.0000 0.0000 (102382 PWs)   bands (ev):

   -16.6420 -14.0881 -11.7636  -8.4325  -7.4531  -7.3986  -6.1773  -5.0616
    -3.9140  -2.6138  -1.0581  -0.8086   1.0523   1.4549

     occupation numbers 
     1.0000   1.0000   1.0000   1.0000   1.0000   1.0000   1.0000   1.0000
     1.0000   1.0000   0.0000   0.0000   0.0000   0.0000

          k = 0.2500 0.0855 0.0000 (102356 PWs)   bands (ev):

   -16.5735 -14.1503 -11.7350  -8.6301  -7.7363  -7.3709  -5.6321  -5.3450
    -3.8097  -2.8344  -0.8550  -0.6138   0.8345   1.4990

     occupation numbers 
     1.0000   1.0000   1.0000   1.0000   1.0000   1.0000   1.0000   1.0000
     1.0000   1.0000   0.0000   0.0000   0.0000   0.0000

          k = 0.2500 0.1710 0.0000 (102360 PWs)   bands (ev):

   -16.3719 -14.3546 -11.6196  -9.1165  -8.0905  -7.2699  -5.7004  -4.7842
    -3.8349  -3.2916  -0.3834   0.1334   0.1446   2.3637

     occupation numbers 
     1.0000   1.0000   1.0000   1.0000   1.0000   1.0000   1.0000   1.0000
     1.0000   1.0000   0.0000   0.0000   0.0000   0.0000

          k = 0.2500 0.2564 0.0000 (102335 PWs)   bands (ev):

   -16.0497 -14.7094 -11.3621  -9.7422  -8.1692  -7.3775  -5.7152  -4.4696
    -3.8912  -3.5710  -0.0818   0.2703   1.1706   2.0140

     occupation numbers 
     1.0000   1.0000   1.0000   1.0000   1.0000   1.0000   1.0000   1.0000
     1.0000   1.0000   0.0000   0.0000   0.0000   0.0000

          k = 0.2500 0.3419 0.0000 (102328 PWs)   bands (ev):

   -15.6322 -15.1627 -10.9409 -10.3813  -8.0013  -7.6872  -5.3828  -4.8862
    -3.8026  -3.6369   0.3574   1.0527   1.0812   1.7435

     occupation numbers 
     1.0000   1.0000   1.0000   1.0000   1.0000   1.0000   1.0000   1.0000
     1.0000   1.0000   0.0000   0.0000   0.0000   0.0000

          k = 0.3333 0.0000 0.0000 (102400 PWs)   bands (ev):

   -16.0761 -13.4985 -12.6266  -9.6437  -7.3769  -7.0908  -5.7206  -4.8585
    -4.0293  -3.1808  -1.1741  -0.5713  -0.0174   0.5066

     occupation numbers 
     1.0000   1.0000   1.0000   1.0000   1.0000   1.0000   1.0000   1.0000
     1.0000   1.0000   0.0000   0.0000   0.0000   0.0000

          k = 0.3333 0.0855 0.0000 (102377 PWs)   bands (ev):

   -16.0102 -13.6006 -12.5118  -9.7128  -7.7118  -7.1229  -5.3262  -5.1605
    -4.1487  -3.2170  -0.6950  -0.5159  -0.0400   0.4061

     occupation numbers 
     1.0000   1.0000   1.0000   1.0000   1.0000   1.0000   1.0000   1.0000
     1.0000   1.0000   0.0000   0.0000   0.0000   0.0000

          k = 0.3333 0.1710 0.0000 (102416 PWs)   bands (ev):

   -15.8166 -13.8607 -12.2230  -9.9352  -8.1716  -7.2598  -5.6622  -4.8918
    -4.3226  -3.2526  -0.5786  -0.1735   0.4063   1.3451

     occupation numbers 
     1.0000   1.0000   1.0000   1.0000   1.0000   1.0000   1.0000   1.0000
     1.0000   1.0000   0.0000   0.0000   0.0000   0.0000

          k = 0.3333 0.2564 0.0000 (102344 PWs)   bands (ev):

   -15.5086 -14.2305 -11.8196 -10.3185  -8.3894  -7.5827  -5.8822  -4.9962
    -4.3098  -3.3720  -0.3187   0.3192   1.4726   1.6068

     occupation numbers 
     1.0000   1.0000   1.0000   1.0000   1.0000   1.0000   1.0000   1.0000
     1.0000   1.0000   0.0000   0.0000   0.0000   0.0000

          k = 0.3333 0.3419 0.0000 (102355 PWs)   bands (ev):

   -15.1118 -14.6670 -11.3353 -10.8125  -8.3136  -8.0015  -5.7361  -5.3785
    -4.0784  -3.7133   0.2795   0.9001   1.2134   2.0090

     occupation numbers 
     1.0000   1.0000   1.0000   1.0000   1.0000   1.0000   1.0000   1.0000
     1.0000   1.0000   0.0000   0.0000   0.0000   0.0000

          k = 0.4167 0.0000 0.0000 (102462 PWs)   bands (ev):

   -15.3641 -13.5892 -12.7481 -10.8012  -7.1017  -6.8047  -5.2239  -4.7085
    -4.2793  -3.7972  -0.9441  -0.7327  -0.5245   0.3265

     occupation numbers 
     1.0000   1.0000   1.0000   1.0000   1.0000   1.0000   1.0000   1.0000
     1.0000   1.0000   0.0000   0.0000   0.0000   0.0000

          k = 0.4167 0.0855 0.0000 (102460 PWs)   bands (ev):

   -15.3035 -13.6057 -12.7024 -10.8376  -7.3783  -6.8624  -5.2220  -5.1595
    -4.1743  -3.6232  -0.8508  -0.6709  -0.1249   0.1806

     occupation numbers 
     1.0000   1.0000   1.0000   1.0000   1.0000   1.0000   1.0000   1.0000
     1.0000   1.0000   0.0000   0.0000   0.0000   0.0000

          k = 0.4167 0.1710 0.0000 (102390 PWs)   bands (ev):

   -15.1272 -13.6836 -12.5551 -10.9648  -7.8229  -7.0042  -5.9931  -5.3096
    -4.1705  -3.3416  -0.8272   0.1894   0.2564   0.9300

     occupation numbers 
     1.0000   1.0000   1.0000   1.0000   1.0000   1.0000   1.0000   1.0000
     1.0000   1.0000   0.0000   0.0000   0.0000   0.0000

          k = 0.4167 0.2564 0.0000 (102383 PWs)   bands (ev):

   -14.8528 -13.8693 -12.2964 -11.2108  -8.0663  -7.2412  -6.5351  -5.7232
    -4.0760  -3.3617  -0.3120   0.5946   0.7142   1.7852

     occupation numbers 
     1.0000   1.0000   1.0000   1.0000   1.0000   1.0000   1.0000   1.0000
     1.0000   1.0000   0.0000   0.0000   0.0000   0.0000

          k = 0.4167 0.3419 0.0000 (102347 PWs)   bands (ev):

   -14.5139 -14.1636 -11.9469 -11.5601  -8.0045  -7.6713  -6.5292  -6.1907
    -3.8535  -3.5807   0.0015   0.3541   1.6792   2.4741

     occupation numbers 
     1.0000   1.0000   1.0000   1.0000   1.0000   1.0000   1.0000   1.0000
     1.0000   1.0000   0.0000   0.0000   0.0000   0.0000

          k =-0.5000 0.0000 0.0000 (102536 PWs)   bands (ev):

   -14.5239 -14.5239 -11.8445 -11.8445  -6.8156  -6.8156  -4.8264  -4.8264
    -4.2435  -4.2435  -0.8842  -0.8842  -0.3172  -0.3172

     occupation numbers 
     1.0000   1.0000   1.0000   1.0000   1.0000   1.0000   1.0000   1.0000
     1.0000   1.0000   0.0000   0.0000   0.0000   0.0000

          k =-0.5000 0.0855 0.0000 (102456 PWs)   bands (ev):

   -14.4768 -14.4768 -11.8602 -11.8602  -6.9728  -6.9727  -5.2454  -5.2453
    -3.9083  -3.9083  -1.0267  -1.0267   0.3861   0.3861

     occupation numbers 
     1.0000   1.0000   1.0000   1.0000   1.0000   1.0000   1.0000   1.0000
     1.0000   1.0000   0.0000   0.0000   0.0000   0.0000

          k =-0.5000 0.1710 0.0000 (102462 PWs)   bands (ev):

   -14.3472 -14.3472 -11.9175 -11.9175  -7.2791  -7.2791  -5.8402  -5.8402
    -3.7102  -3.7102  -0.4917  -0.4917   0.7294   0.7294

     occupation numbers 
     1.0000   1.0000   1.0000   1.0000   1.0000   1.0000   1.0000   1.0000
     1.0000   1.0000   0.0000   0.0000   0.0000   0.0000

          k =-0.5000 0.2564 0.0000 (102356 PWs)   bands (ev):

   -14.1761 -14.1760 -12.0225 -12.0224  -7.4554  -7.4554  -6.4538  -6.4538
    -3.6513  -3.6513   0.0460   0.0460   1.1638   1.1638

     occupation numbers 
     1.0000   1.0000   1.0000   1.0000   1.0000   1.0000   1.0000   1.0000
     1.0000   1.0000   0.0000   0.0000   0.0000   0.0000

          k =-0.5000 0.3419 0.0000 (102320 PWs)   bands (ev):

   -14.0441 -14.0441 -12.1222 -12.1222  -7.3662  -7.3662  -6.9894  -6.9894
    -3.6060  -3.6059  -0.0279  -0.0279   2.3079   2.3079

     occupation numbers 
     1.0000   1.0000   1.0000   1.0000   1.0000   1.0000   1.0000   1.0000
     1.0000   1.0000   0.0000   0.0000   0.0000   0.0000

     the Fermi energy is    -1.8542 ev

!    total energy              =     -87.09766376 Ry
     Harris-Foulkes estimate   =     -87.09766376 Ry
     estimated scf accuracy    <          3.7E-10 Ry

     The total energy is the sum of the following terms:

     one-electron contribution =    -437.84452199 Ry
     hartree contribution      =     222.10718284 Ry
     xc contribution           =     -48.74125374 Ry
     ewald contribution        =     177.38092913 Ry
     smearing contrib. (-TS)   =      -0.00000000 Ry

     convergence has been achieved in   9 iterations

     Forces acting on atoms (cartesian axes, Ry/au):

     atom    1 type  1   force =     0.00000000    0.00916746    0.01662355
     atom    2 type  1   force =     0.00000000   -0.00916599   -0.01662295
     atom    3 type  1   force =     0.00000000    0.00916718   -0.01662471
     atom    4 type  1   force =     0.00000000   -0.00916864    0.01662411
     The non-local contrib.  to forces
     atom    1 type  1   force =     0.00000000   -0.23852752    0.27580884
     atom    2 type  1   force =     0.00000000    0.23850379   -0.27581513
     atom    3 type  1   force =     0.00000000   -0.23850794   -0.27581169
     atom    4 type  1   force =     0.00000000    0.23853049    0.27580595
     The ionic contribution  to forces
     atom    1 type  1   force =    -0.00000000    1.39635482   -9.83417623
     atom    2 type  1   force =    -0.00000000   -1.39635602    9.83417623
     atom    3 type  1   force =     0.00000000    1.39635608    9.83417596
     atom    4 type  1   force =     0.00000000   -1.39635488   -9.83417596
     The local contribution  to forces
     atom    1 type  1   force =    -0.00000000   -1.16849738    9.59900379
     atom    2 type  1   force =    -0.00000000    1.16854721   -9.59898897
     atom    3 type  1   force =     0.00000000   -1.16853737   -9.59899592
     atom    4 type  1   force =     0.00000000    1.16848879    9.59901066
     The core correction contribution to forces
     atom    1 type  1   force =     0.00000000    0.01984912   -0.02400372
     atom    2 type  1   force =     0.00000000   -0.01984444    0.02400503
     atom    3 type  1   force =     0.00000000    0.01984711    0.02400367
     atom    4 type  1   force =    -0.00000000   -0.01984954   -0.02400371
     The Hubbard contrib.    to forces
     atom    1 type  1   force =     0.00000000    0.00000000    0.00000000
     atom    2 type  1   force =     0.00000000    0.00000000    0.00000000
     atom    3 type  1   force =     0.00000000    0.00000000    0.00000000
     atom    4 type  1   force =     0.00000000    0.00000000    0.00000000
     The SCF correction term to forces
     atom    1 type  1   force =     0.00000000   -0.00001110   -0.00000904
     atom    2 type  1   force =     0.00000000   -0.00001606   -0.00000002
     atom    3 type  1   force =    -0.00000000    0.00000978    0.00000336
     atom    4 type  1   force =    -0.00000000    0.00001698   -0.00001274

     Total force =     0.037968     Total SCF correction =     0.000032

     Writing output data file p.save
 
     init_run     :      3.89s CPU      2.31s WALL (       1 calls)
     electrons    :     84.54s CPU     44.88s WALL (       1 calls)
     forces       :      1.00s CPU      0.55s WALL (       1 calls)

     Called by init_run:
     wfcinit      :      2.75s CPU      1.48s WALL (       1 calls)
     wfcinit:atom :      0.04s CPU      0.03s WALL (      35 calls)
     wfcinit:wfcr :      2.42s CPU      1.29s WALL (      35 calls)
     potinit      :      0.33s CPU      0.19s WALL (       1 calls)

     Called by electrons:
     c_bands      :     72.10s CPU     38.20s WALL (      10 calls)
     sum_band     :     11.84s CPU      6.16s WALL (      10 calls)
     v_of_rho     :      0.12s CPU      0.06s WALL (      10 calls)
     v_h          :      0.07s CPU      0.04s WALL (      10 calls)
     v_xc         :      0.05s CPU      0.03s WALL (      11 calls)
     mix_rho      :      0.21s CPU      0.11s WALL (      10 calls)

     Called by c_bands:
     init_us_2    :      1.30s CPU      0.71s WALL (     770 calls)
     cegterg      :     69.88s CPU     36.27s WALL (     350 calls)

     Called by sum_band:

     Called by *egterg:
     h_psi        :     53.11s CPU     27.61s WALL (    1291 calls)
     g_psi        :      0.46s CPU      0.23s WALL (     906 calls)
     cdiaghg      :      7.58s CPU      3.99s WALL (    1221 calls)
     cegterg:over :      3.12s CPU      1.66s WALL (     906 calls)
     cegterg:upda :      3.76s CPU      1.91s WALL (     906 calls)
     cegterg:last :      0.93s CPU      0.51s WALL (     350 calls)
     cdiaghg:chol :      0.42s CPU      0.23s WALL (    1221 calls)
     cdiaghg:inve :      0.08s CPU      0.06s WALL (    1221 calls)
     cdiaghg:para :      0.62s CPU      0.29s WALL (    2442 calls)

     Called by h_psi:
     h_psi:pot    :     52.44s CPU     27.25s WALL (    1291 calls)
     h_psi:calbec :      1.91s CPU      1.02s WALL (    1291 calls)
     vloc_psi     :     49.54s CPU     25.70s WALL (    1291 calls)
     add_vuspsi   :      0.95s CPU      0.51s WALL (    1291 calls)

     General routines
     calbec       :      2.05s CPU      1.08s WALL (    1431 calls)
     fft          :      0.21s CPU      0.16s WALL (      45 calls)
     fftw         :     52.90s CPU     27.03s WALL (   31428 calls)
 
     Parallel routines
     fft_scatt_xy :     13.26s CPU      3.01s WALL (   31473 calls)
     fft_scatt_yz :     19.24s CPU      8.74s WALL (   31473 calls)
 
     PWSCF        :  1m33.85s CPU     0m52.55s WALL

 
   This run was terminated on:  21:33:11  27Jul2018            

=------------------------------------------------------------------------------=
   JOB DONE.
=------------------------------------------------------------------------------=
