
     Program PWSCF v.6.2 starts on 27Jul2018 at 21:10:36 

     This program is part of the open-source Quantum ESPRESSO suite
     for quantum simulation of materials; please cite
         "P. Giannozzi et al., J. Phys.:Condens. Matter 21 395502 (2009);
         "P. Giannozzi et al., J. Phys.:Condens. Matter 29 465901 (2017);
          URL http://www.quantum-espresso.org", 
     in publications or presentations arising from this work. More details at
     http://www.quantum-espresso.org/quote

     Parallel version (MPI & OpenMP), running on      64 processor cores
     Number of MPI processes:                32
     Threads/MPI process:                     2

     MPI processes distributed on     1 nodes
     R & G space division:  proc/nbgrp/npool/nimage =      32
     Waiting for input...
     Reading input from standard input

     Current dimensions of program PWSCF are:
     Max number of different atomic species (ntypx) = 20
     Max number of k-points (npk) =  40000
     Max angular momentum in pseudopotentials (lmaxx) =  3

     Subspace diagonalization in iterative solution of the eigenvalue problem:
     one sub-group per band group will be used
     scalapack distributed-memory algorithm (size of sub-group:  4*  4 procs)

 
     Parallelization info
     --------------------
     sticks:   dense  smooth     PW     G-vecs:    dense   smooth      PW
     Min          50      50     14                 9030     9030    1298
     Max          51      51     15                 9065     9065    1318
     Sum        1617    1617    451               289415   289415   41917
 


     bravais-lattice index     =            0
     lattice parameter (alat)  =       6.2737  a.u.
     unit-cell volume          =    2142.8622 (a.u.)^3
     number of atoms/cell      =            4
     number of atomic types    =            1
     number of electrons       =        20.00
     number of Kohn-Sham states=           30
     kinetic-energy cutoff     =     100.0000  Ry
     charge density cutoff     =     400.0000  Ry
     convergence threshold     =      1.0E-09
     mixing beta               =       0.7000
     number of iterations used =            8  plain     mixing
     Exchange-correlation      = PZ ( 1  1  0  0 0 0)

     celldm(1)=   6.273702  celldm(2)=   0.000000  celldm(3)=   0.000000
     celldm(4)=   0.000000  celldm(5)=   0.000000  celldm(6)=   0.000000

     crystal axes: (cart. coord. in units of alat)
               a(1) = (   1.000000   0.000000   0.000000 )  
               a(2) = (   0.000000   1.299858   0.000000 )  
               a(3) = (   0.000000   0.000000   6.676157 )  

     reciprocal axes: (cart. coord. in units 2 pi/alat)
               b(1) = (  1.000000  0.000000  0.000000 )  
               b(2) = (  0.000000  0.769315  0.000000 )  
               b(3) = (  0.000000  0.000000  0.149787 )  


     PseudoPot. # 1 for P  read from file:
     ./P.UPF
     MD5 check sum: b88c35a6f4b891eaa010a3085e4716c8
     Pseudo is Norm-conserving + core correction, Zval =  5.0
     Generated using "atomic" code by A. Dal Corso v.6.0 svn rev. 13079
     Using radial grid of 1147 points,  2 beta functions with: 
                l(1) =   0
                l(2) =   1

     atomic species   valence    mass     pseudopotential
       P               5.00    30.97400     P ( 1.00)

      4 Sym. Ops. (no inversion) found ( 2 have fractional translation)


                                    s                        frac. trans.

      isym =  1     identity                                     

 cryst.   s( 1) = (     1          0          0      )
                  (     0          1          0      )
                  (     0          0          1      )

 cart.    s( 1) = (  1.0000000  0.0000000  0.0000000 )
                  (  0.0000000  1.0000000  0.0000000 )
                  (  0.0000000  0.0000000  1.0000000 )


      isym =  2     180 deg rotation - cart. axis [0,0,1]        

 cryst.   s( 2) = (    -1          0          0      )    f =(  0.5000000 )
                  (     0         -1          0      )       (  0.4999999 )
                  (     0          0          1      )       (  0.0000000 )

 cart.    s( 2) = ( -1.0000000  0.0000000  0.0000000 )    f =(  0.5000000 )
                  (  0.0000000 -1.0000000  0.0000000 )       (  0.6499291 )
                  (  0.0000000  0.0000000  1.0000000 )       (  0.0000000 )


      isym =  3     inv. 180 deg rotation - cart. axis [0,1,0]   

 cryst.   s( 3) = (     1          0          0      )    f =(  0.5000000 )
                  (     0         -1          0      )       (  0.4999999 )
                  (     0          0          1      )       (  0.0000000 )

 cart.    s( 3) = (  1.0000000  0.0000000  0.0000000 )    f =(  0.5000000 )
                  (  0.0000000 -1.0000000  0.0000000 )       (  0.6499291 )
                  (  0.0000000  0.0000000  1.0000000 )       (  0.0000000 )


      isym =  4     inv. 180 deg rotation - cart. axis [1,0,0]   

 cryst.   s( 4) = (    -1          0          0      )
                  (     0          1          0      )
                  (     0          0          1      )

 cart.    s( 4) = ( -1.0000000  0.0000000  0.0000000 )
                  (  0.0000000  1.0000000  0.0000000 )
                  (  0.0000000  0.0000000  1.0000000 )


   Cartesian axes

     site n.     atom                  positions (alat units)
         1          P    tau(   1) = (   0.5000000   0.5432110   1.2355230  )
         2          P    tau(   2) = (   0.5000000   0.7566476   1.8874023  )
         3          P    tau(   3) = (   0.0000000   1.1931401   1.8874023  )
         4          P    tau(   4) = (   0.0000000   0.1067183   1.2355230  )

   Crystallographic axes

     site n.     atom                  positions (cryst. coord.)
         1          P    tau(   1) = (  0.5000000  0.4179001  0.1850650  )
         2          P    tau(   2) = (  0.5000000  0.5821000  0.2827079  )
         3          P    tau(   3) = (  0.0000000  0.9179000  0.2827079  )
         4          P    tau(   4) = (  0.0000000  0.0821000  0.1850650  )

     number of k points=    36  gaussian smearing, width (Ry)=  0.0010
                       cart. coord. in units 2pi/alat
        k(    1) = (   0.5000000   0.0000000   0.0000000), wk =   0.0555556
        k(    2) = (   0.4750000   0.0000000   0.0000000), wk =   0.0555556
        k(    3) = (   0.4500000   0.0000000   0.0000000), wk =   0.0555556
        k(    4) = (   0.4250000   0.0000000   0.0000000), wk =   0.0555556
        k(    5) = (   0.4000000   0.0000000   0.0000000), wk =   0.0555556
        k(    6) = (   0.3750000   0.0000000   0.0000000), wk =   0.0555556
        k(    7) = (   0.3500000   0.0000000   0.0000000), wk =   0.0555556
        k(    8) = (   0.3250000   0.0000000   0.0000000), wk =   0.0555556
        k(    9) = (   0.3000000   0.0000000   0.0000000), wk =   0.0555556
        k(   10) = (   0.2750000   0.0000000   0.0000000), wk =   0.0555556
        k(   11) = (   0.2500000   0.0000000   0.0000000), wk =   0.0555556
        k(   12) = (   0.2250000   0.0000000   0.0000000), wk =   0.0555556
        k(   13) = (   0.2000000   0.0000000   0.0000000), wk =   0.0555556
        k(   14) = (   0.1750000   0.0000000   0.0000000), wk =   0.0555556
        k(   15) = (   0.1500000   0.0000000   0.0000000), wk =   0.0555556
        k(   16) = (   0.1250000   0.0000000   0.0000000), wk =   0.0555556
        k(   17) = (   0.1000000   0.0000000   0.0000000), wk =   0.0555556
        k(   18) = (   0.0750000   0.0000000   0.0000000), wk =   0.0555556
        k(   19) = (   0.0500000   0.0000000   0.0000000), wk =   0.0555556
        k(   20) = (   0.0250000   0.0000000   0.0000000), wk =   0.0555556
        k(   21) = (   0.0000000   0.0000000   0.0000000), wk =   0.0555556
        k(   22) = (   0.0000000   0.0256436   0.0000000), wk =   0.0555556
        k(   23) = (   0.0000000   0.0512879   0.0000000), wk =   0.0555556
        k(   24) = (   0.0000000   0.0769315   0.0000000), wk =   0.0555556
        k(   25) = (   0.0000000   0.1025750   0.0000000), wk =   0.0555556
        k(   26) = (   0.0000000   0.1282193   0.0000000), wk =   0.0555556
        k(   27) = (   0.0000000   0.1538629   0.0000000), wk =   0.0555556
        k(   28) = (   0.0000000   0.1795065   0.0000000), wk =   0.0555556
        k(   29) = (   0.0000000   0.2051508   0.0000000), wk =   0.0555556
        k(   30) = (   0.0000000   0.2307944   0.0000000), wk =   0.0555556
        k(   31) = (   0.0000000   0.2564379   0.0000000), wk =   0.0555556
        k(   32) = (   0.0000000   0.2820823   0.0000000), wk =   0.0555556
        k(   33) = (   0.0000000   0.3077258   0.0000000), wk =   0.0555556
        k(   34) = (   0.0000000   0.3333694   0.0000000), wk =   0.0555556
        k(   35) = (   0.0000000   0.3590137   0.0000000), wk =   0.0555556
        k(   36) = (   0.0000000   0.3846573   0.0000000), wk =   0.0555556

                       cryst. coord.
        k(    1) = (   0.5000000   0.0000000   0.0000000), wk =   0.0555556
        k(    2) = (   0.4750000   0.0000000   0.0000000), wk =   0.0555556
        k(    3) = (   0.4500000   0.0000000   0.0000000), wk =   0.0555556
        k(    4) = (   0.4250000   0.0000000   0.0000000), wk =   0.0555556
        k(    5) = (   0.4000000   0.0000000   0.0000000), wk =   0.0555556
        k(    6) = (   0.3750000   0.0000000   0.0000000), wk =   0.0555556
        k(    7) = (   0.3500000   0.0000000   0.0000000), wk =   0.0555556
        k(    8) = (   0.3250000   0.0000000   0.0000000), wk =   0.0555556
        k(    9) = (   0.3000000   0.0000000   0.0000000), wk =   0.0555556
        k(   10) = (   0.2750000   0.0000000   0.0000000), wk =   0.0555556
        k(   11) = (   0.2500000   0.0000000   0.0000000), wk =   0.0555556
        k(   12) = (   0.2250000   0.0000000   0.0000000), wk =   0.0555556
        k(   13) = (   0.2000000   0.0000000   0.0000000), wk =   0.0555556
        k(   14) = (   0.1750000   0.0000000   0.0000000), wk =   0.0555556
        k(   15) = (   0.1500000   0.0000000   0.0000000), wk =   0.0555556
        k(   16) = (   0.1250000   0.0000000   0.0000000), wk =   0.0555556
        k(   17) = (   0.1000000   0.0000000   0.0000000), wk =   0.0555556
        k(   18) = (   0.0750000   0.0000000   0.0000000), wk =   0.0555556
        k(   19) = (   0.0500000   0.0000000   0.0000000), wk =   0.0555556
        k(   20) = (   0.0250000   0.0000000   0.0000000), wk =   0.0555556
        k(   21) = (   0.0000000   0.0000000   0.0000000), wk =   0.0555556
        k(   22) = (   0.0000000   0.0333330   0.0000000), wk =   0.0555556
        k(   23) = (   0.0000000   0.0666670   0.0000000), wk =   0.0555556
        k(   24) = (   0.0000000   0.1000000   0.0000000), wk =   0.0555556
        k(   25) = (   0.0000000   0.1333330   0.0000000), wk =   0.0555556
        k(   26) = (   0.0000000   0.1666670   0.0000000), wk =   0.0555556
        k(   27) = (   0.0000000   0.2000000   0.0000000), wk =   0.0555556
        k(   28) = (   0.0000000   0.2333330   0.0000000), wk =   0.0555556
        k(   29) = (   0.0000000   0.2666670   0.0000000), wk =   0.0555556
        k(   30) = (   0.0000000   0.3000000   0.0000000), wk =   0.0555556
        k(   31) = (   0.0000000   0.3333330   0.0000000), wk =   0.0555556
        k(   32) = (   0.0000000   0.3666670   0.0000000), wk =   0.0555556
        k(   33) = (   0.0000000   0.4000000   0.0000000), wk =   0.0555556
        k(   34) = (   0.0000000   0.4333330   0.0000000), wk =   0.0555556
        k(   35) = (   0.0000000   0.4666670   0.0000000), wk =   0.0555556
        k(   36) = (   0.0000000   0.5000000   0.0000000), wk =   0.0555556

     Dense  grid:   289415 G-vectors     FFT dimensions: (  40,  54, 270)

     Dynamical RAM for                 wfc:       0.52 MB

     Dynamical RAM for     wfc (w. buffer):      19.14 MB

     Dynamical RAM for           str. fact:       0.14 MB

     Dynamical RAM for           local pot:       0.00 MB

     Dynamical RAM for          nlocal pot:       0.28 MB

     Dynamical RAM for                qrad:       0.14 MB

     Dynamical RAM for          rho,v,vnew:       0.86 MB

     Dynamical RAM for               rhoin:       0.29 MB

     Dynamical RAM for            rho*nmix:       2.21 MB

     Dynamical RAM for           G-vectors:       0.59 MB

     Dynamical RAM for          h,s,v(r/c):       0.04 MB

     Dynamical RAM for          <psi|beta>:       0.01 MB

     Dynamical RAM for                 psi:       2.07 MB

     Dynamical RAM for                hpsi:       2.07 MB

     Dynamical RAM for      wfcinit/wfcrot:       1.06 MB

     Estimated static dynamical RAM per process >      24.65 MB

     Estimated max dynamical RAM per process >      28.84 MB

     Estimated total dynamical RAM >     922.82 MB

     Check: negative/imaginary core charge=   -0.000007    0.000000

     Initial potential from superposition of free atoms

     starting charge   19.99943, renormalised to   20.00000

     negative rho (up, down):  3.725E-06 0.000E+00
     Starting wfc are   16 randomized atomic wfcs +   14 random wfc

     total cpu time spent up to now is        1.7 secs

     Self-consistent Calculation

     iteration #  1     ecut=   100.00 Ry     beta= 0.70
     Davidson diagonalization with overlap
     ethr =  1.00E-02,  avg # of iterations =  8.2

     Threshold (ethr) on eigenvalues was too large:
     Diagonalizing with lowered threshold

     Davidson diagonalization with overlap
     ethr =  5.11E-04,  avg # of iterations =  1.7

     negative rho (up, down):  1.660E-07 0.000E+00

     total cpu time spent up to now is       12.8 secs

     total energy              =     -61.95494015 Ry
     Harris-Foulkes estimate   =     -61.99570782 Ry
     estimated scf accuracy    <       0.10117047 Ry

     iteration #  2     ecut=   100.00 Ry     beta= 0.70
     Davidson diagonalization with overlap
     ethr =  5.06E-04,  avg # of iterations =  3.2

     total cpu time spent up to now is       17.2 secs

     total energy              =     -61.95713012 Ry
     Harris-Foulkes estimate   =     -61.96932240 Ry
     estimated scf accuracy    <       0.01882722 Ry

     iteration #  3     ecut=   100.00 Ry     beta= 0.70
     Davidson diagonalization with overlap
     ethr =  9.41E-05,  avg # of iterations =  3.4

     total cpu time spent up to now is       21.2 secs

     total energy              =     -61.96112257 Ry
     Harris-Foulkes estimate   =     -61.96835815 Ry
     estimated scf accuracy    <       0.01550874 Ry

     iteration #  4     ecut=   100.00 Ry     beta= 0.70
     Davidson diagonalization with overlap
     ethr =  7.75E-05,  avg # of iterations =  2.4

     total cpu time spent up to now is       24.4 secs

     total energy              =     -61.96423186 Ry
     Harris-Foulkes estimate   =     -61.96427687 Ry
     estimated scf accuracy    <       0.00009966 Ry

     iteration #  5     ecut=   100.00 Ry     beta= 0.70
     Davidson diagonalization with overlap
     ethr =  4.98E-07,  avg # of iterations =  5.6

     total cpu time spent up to now is       29.6 secs

     total energy              =     -61.96426785 Ry
     Harris-Foulkes estimate   =     -61.96427256 Ry
     estimated scf accuracy    <       0.00000806 Ry

     iteration #  6     ecut=   100.00 Ry     beta= 0.70
     Davidson diagonalization with overlap
     ethr =  4.03E-08,  avg # of iterations =  1.6

     total cpu time spent up to now is       32.5 secs

     total energy              =     -61.96426595 Ry
     Harris-Foulkes estimate   =     -61.96427548 Ry
     estimated scf accuracy    <       0.00003739 Ry

     iteration #  7     ecut=   100.00 Ry     beta= 0.70
     Davidson diagonalization with overlap
     ethr =  4.03E-08,  avg # of iterations =  1.0

     total cpu time spent up to now is       35.2 secs

     total energy              =     -61.96427064 Ry
     Harris-Foulkes estimate   =     -61.96427074 Ry
     estimated scf accuracy    <       0.00000043 Ry

     iteration #  8     ecut=   100.00 Ry     beta= 0.70
     Davidson diagonalization with overlap
     ethr =  2.13E-09,  avg # of iterations =  1.1

     total cpu time spent up to now is       38.0 secs

     total energy              =     -61.96427069 Ry
     Harris-Foulkes estimate   =     -61.96427069 Ry
     estimated scf accuracy    <          3.3E-09 Ry

     iteration #  9     ecut=   100.00 Ry     beta= 0.70
     Davidson diagonalization with overlap
     ethr =  1.65E-11,  avg # of iterations =  3.0

     total cpu time spent up to now is       41.8 secs

     End of self-consistent calculation

          k = 0.5000 0.0000 0.0000 ( 36140 PWs)   bands (ev):

   -14.4617 -14.4617 -11.8098 -11.8098  -6.7761  -6.7761  -4.8055  -4.8055
    -4.2522  -4.2522  -0.8749  -0.8749  -0.3134  -0.3134   1.0208   1.0208
     4.5004   4.5004   5.4004   5.4004   5.6502   5.6502   6.1995   6.1995
     6.3942   6.3942   7.5263   7.5263   7.6869   7.6869

     occupation numbers 
     1.0000   1.0000   1.0000   1.0000   1.0000   1.0000   1.0000   1.0000
     1.0000   1.0000   0.0000   0.0000   0.0000   0.0000   0.0000   0.0000
     0.0000   0.0000   0.0000   0.0000   0.0000   0.0000   0.0000   0.0000
     0.0000   0.0000   0.0000   0.0000   0.0000   0.0000

          k = 0.4750 0.0000 0.0000 ( 36170 PWs)   bands (ev):

   -14.7268 -14.1878 -12.0967 -11.5102  -6.8444  -6.7358  -4.9024  -4.7357
    -4.3101  -4.1533  -0.8940  -0.8054  -0.5310  -0.0769   0.7824   1.2689
     4.4504   4.4954   5.0804   5.3776   5.7359   5.9488   6.0089   6.0705
     6.4582   6.7328   7.2546   7.4206   7.8051   7.9354

     occupation numbers 
     1.0000   1.0000   1.0000   1.0000   1.0000   1.0000   1.0000   1.0000
     1.0000   1.0000   0.0000   0.0000   0.0000   0.0000   0.0000   0.0000
     0.0000   0.0000   0.0000   0.0000   0.0000   0.0000   0.0000   0.0000
     0.0000   0.0000   0.0000   0.0000   0.0000   0.0000

          k = 0.4500 0.0000 0.0000 ( 36166 PWs)   bands (ev):

   -14.9819 -13.9064 -12.3704 -11.1985  -6.9321  -6.7297  -5.0211  -4.6961
    -4.3235  -4.0205  -0.8576  -0.7256  -0.6942   0.1754   0.5582   1.5233
     4.3789   4.4091   4.7761   5.1239   5.7625   5.9083   6.0863   6.2703
     6.7549   7.0127   7.0849   7.1510   8.0401   8.1432

     occupation numbers 
     1.0000   1.0000   1.0000   1.0000   1.0000   1.0000   1.0000   1.0000
     1.0000   1.0000   0.0000   0.0000   0.0000   0.0000   0.0000   0.0000
     0.0000   0.0000   0.0000   0.0000   0.0000   0.0000   0.0000   0.0000
     0.0000   0.0000   0.0000   0.0000   0.0000   0.0000

          k = 0.4250 0.0000 0.0000 ( 36172 PWs)   bands (ev):

   -15.2263 -13.6192 -12.6307 -10.8752  -7.0296  -6.7586  -5.1557  -4.6869
    -4.2951  -3.8621  -0.8927  -0.7647  -0.5563   0.3582   0.4403   1.7811
     4.2501   4.3100   4.4879   4.8773   5.4705   5.8743   6.4505   6.5995
     6.8279   6.8858   7.0554   7.4465   8.0496   8.2874

     occupation numbers 
     1.0000   1.0000   1.0000   1.0000   1.0000   1.0000   1.0000   1.0000
     1.0000   1.0000   0.0000   0.0000   0.0000   0.0000   0.0000   0.0000
     0.0000   0.0000   0.0000   0.0000   0.0000   0.0000   0.0000   0.0000
     0.0000   0.0000   0.0000   0.0000   0.0000   0.0000

          k = 0.4000 0.0000 0.0000 ( 36146 PWs)   bands (ev):

   -15.4591 -13.3281 -12.8773 -10.5412  -7.1284  -6.8186  -5.3005  -4.7049
    -4.2339  -3.6861  -1.0267  -0.6175  -0.4267   0.2117   0.7148   2.0387
     4.0503   4.2158   4.2591   4.6342   5.1948   5.8340   6.6296   6.7403
     6.8257   6.8427   7.2693   7.8053   7.8709   8.3703

     occupation numbers 
     1.0000   1.0000   1.0000   1.0000   1.0000   1.0000   1.0000   1.0000
     1.0000   1.0000   0.0000   0.0000   0.0000   0.0000   0.0000   0.0000
     0.0000   0.0000   0.0000   0.0000   0.0000   0.0000   0.0000   0.0000
     0.0000   0.0000   0.0000   0.0000   0.0000   0.0000

          k = 0.3750 0.0000 0.0000 ( 36130 PWs)   bands (ev):

   -15.6799 -13.1099 -13.0357 -10.1973  -7.2207  -6.9024  -5.4505  -4.7450
    -4.1534  -3.4998  -1.1208  -0.4208  -0.3894   0.1979   0.9958   2.2919
     3.8358   3.9601   4.2367   4.3973   4.9356   5.7310   6.3850   6.5866
     6.7660   7.2024   7.5125   8.0478   8.1059   8.1795

     occupation numbers 
     1.0000   1.0000   1.0000   1.0000   1.0000   1.0000   1.0000   1.0000
     1.0000   1.0000   0.0000   0.0000   0.0000   0.0000   0.0000   0.0000
     0.0000   0.0000   0.0000   0.0000   0.0000   0.0000   0.0000   0.0000
     0.0000   0.0000   0.0000   0.0000   0.0000   0.0000

          k = 0.3500 0.0000 0.0000 ( 36192 PWs)   bands (ev):

   -15.8880 -13.3282 -12.7450  -9.8450  -7.2998  -7.0023  -5.6014  -4.8006
    -4.0687  -3.3094  -1.1676  -0.4818  -0.1810   0.3497   1.2803   2.5355
     3.6210   3.7209   4.1702   4.2508   4.6931   5.5756   6.0092   6.1533
     6.8546   7.5036   7.8907   7.9808   8.0744   8.1649

     occupation numbers 
     1.0000   1.0000   1.0000   1.0000   1.0000   1.0000   1.0000   1.0000
     1.0000   1.0000   0.0000   0.0000   0.0000   0.0000   0.0000   0.0000
     0.0000   0.0000   0.0000   0.0000   0.0000   0.0000   0.0000   0.0000
     0.0000   0.0000   0.0000   0.0000   0.0000   0.0000

          k = 0.3250 0.0000 0.0000 ( 36192 PWs)   bands (ev):

   -16.0832 -13.5322 -12.4600  -9.4858  -7.3596  -7.1114  -5.7500  -4.8648
    -3.9935  -3.1206  -1.1605  -0.6270   0.0956   0.5864   1.5651   2.7621
     3.4133   3.4983   3.9552   4.3066   4.4672   5.3702   5.3986   5.9358
     6.9272   7.2256   7.7879   8.0917   8.1431   8.3086

     occupation numbers 
     1.0000   1.0000   1.0000   1.0000   1.0000   1.0000   1.0000   1.0000
     1.0000   1.0000   0.0000   0.0000   0.0000   0.0000   0.0000   0.0000
     0.0000   0.0000   0.0000   0.0000   0.0000   0.0000   0.0000   0.0000
     0.0000   0.0000   0.0000   0.0000   0.0000   0.0000

          k = 0.3000 0.0000 0.0000 ( 36144 PWs)   bands (ev):

   -16.2649 -13.7216 -12.1849  -9.1220  -7.3942  -7.2240  -5.8937  -4.9311
    -3.9381  -2.9384  -1.0952  -0.7813   0.4024   0.8607   1.8463   2.9615
     3.2165   3.2924   3.7539   4.2581   4.3982   4.7337   5.2188   5.7329
     6.6563   6.9254   7.6035   8.0573   8.2803   8.5039

     occupation numbers 
     1.0000   1.0000   1.0000   1.0000   1.0000   1.0000   1.0000   1.0000
     1.0000   1.0000   0.0000   0.0000   0.0000   0.0000   0.0000   0.0000
     0.0000   0.0000   0.0000   0.0000   0.0000   0.0000   0.0000   0.0000
     0.0000   0.0000   0.0000   0.0000   0.0000   0.0000

          k = 0.2750 0.0000 0.0000 ( 36152 PWs)   bands (ev):

   -16.4330 -13.8963 -11.9251  -8.7568  -7.3979  -7.3361  -6.0305  -4.9933
    -3.9072  -2.7672  -0.9718  -0.9314   0.7325   1.1558   2.1174   3.0327
     3.1037   3.1183   3.5671   4.0631   4.0659   4.5873   5.0451   5.5451
     6.0958   6.8449   7.4296   7.9469   8.3304   8.6047

     occupation numbers 
     1.0000   1.0000   1.0000   1.0000   1.0000   1.0000   1.0000   1.0000
     1.0000   1.0000   0.0000   0.0000   0.0000   0.0000   0.0000   0.0000
     0.0000   0.0000   0.0000   0.0000   0.0000   0.0000   0.0000   0.0000
     0.0000   0.0000   0.0000   0.0000   0.0000   0.0000

          k = 0.2500 0.0000 0.0000 ( 36142 PWs)   bands (ev):

   -16.5872 -14.0561 -11.6857  -8.3944  -7.4444  -7.3657  -6.1588  -5.0451
    -3.9002  -2.6104  -1.0725  -0.7953   1.0776   1.4629   2.3526   2.8632
     2.9328   3.2094   3.3956   3.4819   3.8908   4.7851   4.8817   5.3726
     5.5966   6.7144   7.2672   7.7759   8.4032   8.8560

     occupation numbers 
     1.0000   1.0000   1.0000   1.0000   1.0000   1.0000   1.0000   1.0000
     1.0000   1.0000   0.0000   0.0000   0.0000   0.0000   0.0000   0.0000
     0.0000   0.0000   0.0000   0.0000   0.0000   0.0000   0.0000   0.0000
     0.0000   0.0000   0.0000   0.0000   0.0000   0.0000

          k = 0.2250 0.0000 0.0000 ( 36138 PWs)   bands (ev):

   -16.7272 -14.2010 -11.4717  -8.0411  -7.5468  -7.2937  -6.2774  -5.0795
    -3.9128  -2.4709  -1.2024  -0.5739   1.4233   1.7747   2.3882   2.7088
     2.7814   3.1158   3.2055   3.2397   3.7331   4.7307   5.0350   5.2037
     5.2157   6.5569   7.1172   7.5938   8.5101   9.1754

     occupation numbers 
     1.0000   1.0000   1.0000   1.0000   1.0000   1.0000   1.0000   1.0000
     1.0000   1.0000   0.0000   0.0000   0.0000   0.0000   0.0000   0.0000
     0.0000   0.0000   0.0000   0.0000   0.0000   0.0000   0.0000   0.0000
     0.0000   0.0000   0.0000   0.0000   0.0000   0.0000

          k = 0.2000 0.0000 0.0000 ( 36140 PWs)   bands (ev):

   -16.8529 -14.3309 -11.2871  -7.7054  -7.6415  -7.1800  -6.3854  -5.0885
    -3.9391  -2.3502  -1.3200  -0.3178   1.7344   1.9863   2.0791   2.5698
     2.6562   3.0997   3.1048   3.2164   3.5932   4.5933   4.9540   5.0744
     5.3263   6.3829   6.9800   7.4169   8.6541   9.5159

     occupation numbers 
     1.0000   1.0000   1.0000   1.0000   1.0000   1.0000   1.0000   1.0000
     1.0000   1.0000   0.0000   0.0000   0.0000   0.0000   0.0000   0.0000
     0.0000   0.0000   0.0000   0.0000   0.0000   0.0000   0.0000   0.0000
     0.0000   0.0000   0.0000   0.0000   0.0000   0.0000

          k = 0.1750 0.0000 0.0000 ( 36154 PWs)   bands (ev):

   -16.9642 -14.4457 -11.1336  -7.7272  -7.3985  -7.0262  -6.4820  -5.0631
    -3.9733  -2.2491  -1.4247  -0.0372   1.4503   1.9076   2.3213   2.4467
     2.6055   2.9758   3.0204   3.4726   3.4895   4.4699   4.8396   4.9485
     5.6502   6.1961   6.8559   7.2518   8.8315   9.4821

     occupation numbers 
     1.0000   1.0000   1.0000   1.0000   1.0000   1.0000   1.0000   1.0000
     1.0000   1.0000   0.0000   0.0000   0.0000   0.0000   0.0000   0.0000
     0.0000   0.0000   0.0000   0.0000   0.0000   0.0000   0.0000   0.0000
     0.0000   0.0000   0.0000   0.0000   0.0000   0.0000

          k = 0.1500 0.0000 0.0000 ( 36130 PWs)   bands (ev):

   -17.0609 -14.5453 -11.0110  -7.8030  -7.1337  -6.8374  -6.5667  -4.9940
    -4.0105  -2.1678  -1.5161   0.2574   0.9163   1.7966   2.3395   2.3399
     2.7804   2.8680   3.1493   3.3759   3.8076   4.3609   4.8137   4.8379
     5.9968   5.9983   6.7448   7.1033   9.0013   9.3350

     occupation numbers 
     1.0000   1.0000   1.0000   1.0000   1.0000   1.0000   1.0000   1.0000
     1.0000   1.0000   0.0000   0.0000   0.0000   0.0000   0.0000   0.0000
     0.0000   0.0000   0.0000   0.0000   0.0000   0.0000   0.0000   0.0000
     0.0000   0.0000   0.0000   0.0000   0.0000   0.0000

          k = 0.1250 0.0000 0.0000 ( 36116 PWs)   bands (ev):

   -17.1428 -14.6297 -10.9166  -7.8682  -6.9219  -6.6390  -6.6235  -4.8768
    -4.0471  -2.1058  -1.5937   0.4146   0.5549   1.4835   2.2487   2.2713
     2.7765   3.0134   3.3269   3.4551   4.1485   4.2662   4.7421   4.8384
     5.7924   6.3528   6.6471   6.9748   8.7546   9.3583

     occupation numbers 
     1.0000   1.0000   1.0000   1.0000   1.0000   1.0000   1.0000   1.0000
     1.0000   1.0000   0.0000   0.0000   0.0000   0.0000   0.0000   0.0000
     0.0000   0.0000   0.0000   0.0000   0.0000   0.0000   0.0000   0.0000
     0.0000   0.0000   0.0000   0.0000   0.0000   0.0000

          k = 0.1000 0.0000 0.0000 ( 36110 PWs)   bands (ev):

   -17.2100 -14.6988 -10.8470  -7.9221  -6.7670  -6.6986  -6.3987  -4.7178
    -4.0801  -2.0626  -1.6575  -0.0368   0.8424   1.1164   2.1741   2.2042
     2.7013   3.1052   3.4277   3.8098   4.1854   4.5019   4.6606   4.9036
     5.5858   6.5630   6.6969   6.8687   8.2828   9.2073

     occupation numbers 
     1.0000   1.0000   1.0000   1.0000   1.0000   1.0000   1.0000   1.0000
     1.0000   1.0000   0.0000   0.0000   0.0000   0.0000   0.0000   0.0000
     0.0000   0.0000   0.0000   0.0000   0.0000   0.0000   0.0000   0.0000
     0.0000   0.0000   0.0000   0.0000   0.0000   0.0000

          k = 0.0750 0.0000 0.0000 ( 36096 PWs)   bands (ev):

   -17.2623 -14.7526 -10.7979  -7.9644  -6.7451  -6.6634  -6.1822  -4.5379
    -4.1076  -2.0378  -1.7073  -0.4194   0.7678   1.1039   2.1157   2.1496
     2.6423   3.0824   3.6298   4.1186   4.1326   4.5925   4.8549   5.0308
     5.3917   6.4934   6.7862   6.9892   7.7961   8.9740

     occupation numbers 
     1.0000   1.0000   1.0000   1.0000   1.0000   1.0000   1.0000   1.0000
     1.0000   1.0000   0.0000   0.0000   0.0000   0.0000   0.0000   0.0000
     0.0000   0.0000   0.0000   0.0000   0.0000   0.0000   0.0000   0.0000
     0.0000   0.0000   0.0000   0.0000   0.0000   0.0000

          k = 0.0500 0.0000 0.0000 ( 36118 PWs)   bands (ev):

   -17.2997 -14.7911 -10.7657  -7.9949  -6.7785  -6.6002  -5.9977  -4.3689
    -4.1282  -2.0293  -1.7429  -0.7121   0.4806   1.3190   2.0737   2.1099
     2.5996   3.0509   3.8119   4.0668   4.3547   4.5373   5.1838   5.2288
     5.2570   6.4403   6.7275   7.1606   7.3234   8.7961

     occupation numbers 
     1.0000   1.0000   1.0000   1.0000   1.0000   1.0000   1.0000   1.0000
     1.0000   1.0000   0.0000   0.0000   0.0000   0.0000   0.0000   0.0000
     0.0000   0.0000   0.0000   0.0000   0.0000   0.0000   0.0000   0.0000
     0.0000   0.0000   0.0000   0.0000   0.0000   0.0000

          k = 0.0250 0.0000 0.0000 ( 36104 PWs)   bands (ev):

   -17.3221 -14.8141 -10.7476  -8.0132  -6.7986  -6.5669  -5.8716  -4.2471
    -4.1408  -2.0315  -1.7643  -0.8954   0.2896   1.4636   2.0481   2.0859
     2.5736   3.0296   3.9377   4.0326   4.4626   4.4978   5.1190   5.4403
     5.5498   6.4065   6.6925   6.9086   7.1771   8.8418

     occupation numbers 
     1.0000   1.0000   1.0000   1.0000   1.0000   1.0000   1.0000   1.0000
     1.0000   1.0000   0.0000   0.0000   0.0000   0.0000   0.0000   0.0000
     0.0000   0.0000   0.0000   0.0000   0.0000   0.0000   0.0000   0.0000
     0.0000   0.0000   0.0000   0.0000   0.0000   0.0000

          k = 0.0000 0.0000 0.0000 ( 36111 PWs)   bands (ev):

   -17.3296 -14.8218 -10.7417  -8.0193  -6.8053  -6.5565  -5.8265  -4.2024
    -4.1451  -2.0342  -1.7714  -0.9575   0.2223   1.5151   2.0394   2.0778
     2.5648   3.0223   3.9836   4.0204   4.4823   4.4927   5.0800   5.5435
     5.7191   6.3948   6.6809   6.7045   7.1508   8.9795

     occupation numbers 
     1.0000   1.0000   1.0000   1.0000   1.0000   1.0000   1.0000   1.0000
     1.0000   1.0000   0.0000   0.0000   0.0000   0.0000   0.0000   0.0000
     0.0000   0.0000   0.0000   0.0000   0.0000   0.0000   0.0000   0.0000
     0.0000   0.0000   0.0000   0.0000   0.0000   0.0000

          k = 0.0000 0.0256 0.0000 ( 36092 PWs)   bands (ev):

   -17.3232 -14.8257 -10.7595  -8.0444  -6.7702  -6.5664  -5.8215  -4.2046
    -4.0990  -2.1557  -1.6568  -0.9531   0.2123   1.4999   2.0484   2.0948
     2.5737   3.0353   3.9329   4.0075   4.3871   4.4933   5.1825   5.5834
     5.7245   6.3978   6.6973   6.7406   7.1072   9.0110

     occupation numbers 
     1.0000   1.0000   1.0000   1.0000   1.0000   1.0000   1.0000   1.0000
     1.0000   1.0000   0.0000   0.0000   0.0000   0.0000   0.0000   0.0000
     0.0000   0.0000   0.0000   0.0000   0.0000   0.0000   0.0000   0.0000
     0.0000   0.0000   0.0000   0.0000   0.0000   0.0000

          k = 0.0000 0.0513 0.0000 ( 36082 PWs)   bands (ev):

   -17.3041 -14.8376 -10.8097  -8.1193  -6.6677  -6.5889  -5.8066  -4.2112
    -3.9682  -2.3613  -1.4712  -0.9394   0.1820   1.4564   2.0753   2.1444
     2.6001   3.0745   3.7957   3.9224   4.2483   4.5262   5.3108   5.6891
     5.7904   6.4032   6.7481   6.8470   6.9911   8.6139

     occupation numbers 
     1.0000   1.0000   1.0000   1.0000   1.0000   1.0000   1.0000   1.0000
     1.0000   1.0000   0.0000   0.0000   0.0000   0.0000   0.0000   0.0000
     0.0000   0.0000   0.0000   0.0000   0.0000   0.0000   0.0000   0.0000
     0.0000   0.0000   0.0000   0.0000   0.0000   0.0000

          k = 0.0000 0.0769 0.0000 ( 36090 PWs)   bands (ev):

   -17.2722 -14.8583 -10.8840  -8.2422  -6.6087  -6.5058  -5.7818  -4.2226
    -3.7715  -2.5853  -1.2786  -0.9153   0.1307   1.3899   2.1201   2.2234
     2.6440   3.1395   3.6018   3.7162   4.2257   4.5808   5.3085   5.8329
     5.9763   6.3942   6.8377   6.8420   7.0178   8.2641

     occupation numbers 
     1.0000   1.0000   1.0000   1.0000   1.0000   1.0000   1.0000   1.0000
     1.0000   1.0000   0.0000   0.0000   0.0000   0.0000   0.0000   0.0000
     0.0000   0.0000   0.0000   0.0000   0.0000   0.0000   0.0000   0.0000
     0.0000   0.0000   0.0000   0.0000   0.0000   0.0000

          k = 0.0000 0.1026 0.0000 ( 36096 PWs)   bands (ev):

   -17.2278 -14.8892 -10.9714  -8.4076  -6.6124  -6.2949  -5.7474  -4.2393
    -3.5301  -2.8190  -1.0883  -0.8761   0.0579   1.3081   2.1824   2.3272
     2.7044   3.2300   3.3761   3.4680   4.2672   4.6564   5.2270   5.9940
     6.2055   6.3240   6.7263   6.9701   7.2446   7.9038

     occupation numbers 
     1.0000   1.0000   1.0000   1.0000   1.0000   1.0000   1.0000   1.0000
     1.0000   1.0000   0.0000   0.0000   0.0000   0.0000   0.0000   0.0000
     0.0000   0.0000   0.0000   0.0000   0.0000   0.0000   0.0000   0.0000
     0.0000   0.0000   0.0000   0.0000   0.0000   0.0000

          k = 0.0000 0.1282 0.0000 ( 36128 PWs)   bands (ev):

   -17.1711 -14.9319 -11.0606  -8.6062  -6.5937  -6.0457  -5.7037  -4.2621
    -3.2631  -3.0589  -0.9247  -0.7969  -0.0362   1.2191   2.2620   2.4513
     2.7790   3.1349   3.2228   3.3451   4.3386   4.7521   5.1251   6.1578
     6.1610   6.4154   6.6858   7.1293   7.5174   7.5538

     occupation numbers 
     1.0000   1.0000   1.0000   1.0000   1.0000   1.0000   1.0000   1.0000
     1.0000   1.0000   0.0000   0.0000   0.0000   0.0000   0.0000   0.0000
     0.0000   0.0000   0.0000   0.0000   0.0000   0.0000   0.0000   0.0000
     0.0000   0.0000   0.0000   0.0000   0.0000   0.0000

          k = 0.0000 0.1539 0.0000 ( 36148 PWs)   bands (ev):

   -17.1024 -14.9877 -11.1416  -8.8277  -6.5516  -5.7681  -5.6511  -4.2916
    -3.3022  -2.9877  -0.8339  -0.6306  -0.1489   1.1310   2.3581   2.5917
     2.8442   2.8884   3.0148   3.4829   4.4316   4.8656   5.0291   5.9397
     6.3297   6.5943   6.6532   7.2199   7.2509   7.6801

     occupation numbers 
     1.0000   1.0000   1.0000   1.0000   1.0000   1.0000   1.0000   1.0000
     1.0000   1.0000   0.0000   0.0000   0.0000   0.0000   0.0000   0.0000
     0.0000   0.0000   0.0000   0.0000   0.0000   0.0000   0.0000   0.0000
     0.0000   0.0000   0.0000   0.0000   0.0000   0.0000

          k = 0.0000 0.1795 0.0000 ( 36100 PWs)   bands (ev):

   -17.0221 -15.0580 -11.2060  -9.0626  -6.4875  -5.5902  -5.4707  -4.3287
    -3.5464  -2.7205  -0.7676  -0.4254  -0.2746   1.0508   2.4676   2.6436
     2.7232   2.7458   3.0250   3.6413   4.5433   4.9529   4.9917   5.7111
     6.4991   6.5156   6.7446   7.0382   7.0712   7.3585

     occupation numbers 
     1.0000   1.0000   1.0000   1.0000   1.0000   1.0000   1.0000   1.0000
     1.0000   1.0000   0.0000   0.0000   0.0000   0.0000   0.0000   0.0000
     0.0000   0.0000   0.0000   0.0000   0.0000   0.0000   0.0000   0.0000
     0.0000   0.0000   0.0000   0.0000   0.0000   0.0000

          k = 0.0000 0.2052 0.0000 ( 36096 PWs)   bands (ev):

   -16.9306 -15.1434 -11.2478  -9.3032  -6.4033  -5.5214  -5.1613  -4.3738
    -3.7884  -2.4806  -0.7005  -0.4020  -0.2086   0.9842   2.4050   2.4878
     2.6251   2.9125   3.1457   3.8177   4.6714   4.9047   5.1140   5.4991
     6.2623   6.6701   6.6962   6.7777   6.9666   7.2592

     occupation numbers 
     1.0000   1.0000   1.0000   1.0000   1.0000   1.0000   1.0000   1.0000
     1.0000   1.0000   0.0000   0.0000   0.0000   0.0000   0.0000   0.0000
     0.0000   0.0000   0.0000   0.0000   0.0000   0.0000   0.0000   0.0000
     0.0000   0.0000   0.0000   0.0000   0.0000   0.0000

          k = 0.0000 0.2308 0.0000 ( 36116 PWs)   bands (ev):

   -16.8286 -15.2434 -11.2632  -9.5434  -6.3010  -5.4457  -4.8491  -4.4274
    -4.0228  -2.2924  -0.6302  -0.5123   0.0133   0.9358   2.1764   2.2943
     2.7590   3.0915   3.2906   4.0093   4.8020   4.8976   5.1444   5.3802
     5.9930   6.3782   6.4509   6.8443   7.1031   7.3021

     occupation numbers 
     1.0000   1.0000   1.0000   1.0000   1.0000   1.0000   1.0000   1.0000
     1.0000   1.0000   0.0000   0.0000   0.0000   0.0000   0.0000   0.0000
     0.0000   0.0000   0.0000   0.0000   0.0000   0.0000   0.0000   0.0000
     0.0000   0.0000   0.0000   0.0000   0.0000   0.0000

          k = 0.0000 0.2564 0.0000 ( 36114 PWs)   bands (ev):

   -16.7167 -15.3571 -11.2500  -9.7787  -6.1821  -5.3638  -4.5651  -4.4895
    -4.2216  -2.1859  -0.5807  -0.5589   0.2360   0.9090   1.9606   2.0967
     2.9200   3.2832   3.4535   4.2141   4.8526   5.0001   5.0081   5.3657
     5.8059   6.0447   6.1458   6.9790   7.0230   7.2919

     occupation numbers 
     1.0000   1.0000   1.0000   1.0000   1.0000   1.0000   1.0000   1.0000
     1.0000   1.0000   0.0000   0.0000   0.0000   0.0000   0.0000   0.0000
     0.0000   0.0000   0.0000   0.0000   0.0000   0.0000   0.0000   0.0000
     0.0000   0.0000   0.0000   0.0000   0.0000   0.0000

          k = 0.0000 0.2821 0.0000 ( 36080 PWs)   bands (ev):

   -16.5958 -15.4823 -11.2078 -10.0055  -6.0478  -5.2768  -4.5627  -4.5597
    -4.1338  -2.1843  -0.5886  -0.4904   0.4545   0.9060   1.7598   1.9059
     3.0977   3.4882   3.6331   4.4298   4.8214   4.8637   5.1823   5.2234
     5.6752   5.7216   6.0126   6.6644   7.2063   7.2074

     occupation numbers 
     1.0000   1.0000   1.0000   1.0000   1.0000   1.0000   1.0000   1.0000
     1.0000   1.0000   0.0000   0.0000   0.0000   0.0000   0.0000   0.0000
     0.0000   0.0000   0.0000   0.0000   0.0000   0.0000   0.0000   0.0000
     0.0000   0.0000   0.0000   0.0000   0.0000   0.0000

          k = 0.0000 0.3077 0.0000 ( 36088 PWs)   bands (ev):

   -16.4671 -15.6166 -11.1374 -10.2207  -5.8992  -5.1858  -4.7629  -4.6374
    -3.8405  -2.2850  -0.5435  -0.4305   0.6636   0.9282   1.5763   1.7234
     3.2906   3.7069   3.8285   4.6143   4.6712   4.8621   5.0388   5.3517
     5.4241   5.4419   6.1308   6.3467   6.9376   7.3983

     occupation numbers 
     1.0000   1.0000   1.0000   1.0000   1.0000   1.0000   1.0000   1.0000
     1.0000   1.0000   0.0000   0.0000   0.0000   0.0000   0.0000   0.0000
     0.0000   0.0000   0.0000   0.0000   0.0000   0.0000   0.0000   0.0000
     0.0000   0.0000   0.0000   0.0000   0.0000   0.0000

          k = 0.0000 0.3334 0.0000 ( 36124 PWs)   bands (ev):

   -16.3316 -15.7573 -11.0401 -10.4218  -5.7371  -5.0922  -4.9739  -4.7214
    -3.5354  -2.4629  -0.4748  -0.3862   0.8596   0.9758   1.4118   1.5489
     3.4978   3.9391   4.0388   4.4155   4.8215   4.8427   4.9271   5.1433
     5.1856   5.5937   6.0394   6.2981   6.6833   7.3122

     occupation numbers 
     1.0000   1.0000   1.0000   1.0000   1.0000   1.0000   1.0000   1.0000
     1.0000   1.0000   0.0000   0.0000   0.0000   0.0000   0.0000   0.0000
     0.0000   0.0000   0.0000   0.0000   0.0000   0.0000   0.0000   0.0000
     0.0000   0.0000   0.0000   0.0000   0.0000   0.0000

          k = 0.0000 0.3590 0.0000 ( 36128 PWs)   bands (ev):

   -16.1910 -15.9017 -10.9178 -10.6065  -5.5624  -5.1795  -4.9974  -4.8104
    -3.2376  -2.6920  -0.4120  -0.3650   1.0419   1.0489   1.2681   1.3804
     3.7179   4.1686   4.1998   4.2616   4.6762   4.7101   4.9733   4.9897
     5.1969   5.7027   5.8570   6.2906   6.6369   7.0628

     occupation numbers 
     1.0000   1.0000   1.0000   1.0000   1.0000   1.0000   1.0000   1.0000
     1.0000   1.0000   0.0000   0.0000   0.0000   0.0000   0.0000   0.0000
     0.0000   0.0000   0.0000   0.0000   0.0000   0.0000   0.0000   0.0000
     0.0000   0.0000   0.0000   0.0000   0.0000   0.0000

          k = 0.0000 0.3847 0.0000 ( 36094 PWs)   bands (ev):

   -16.0470 -16.0470 -10.7725 -10.7725  -5.3762  -5.3762  -4.9029  -4.9029
    -2.9539  -2.9539  -0.3732  -0.3732   1.1467   1.1467   1.2135   1.2135
     3.9480   3.9480   4.4288   4.4290   4.5022   4.5033   4.9470   4.9472
     5.4453   5.4455   6.0697   6.0707   6.8305   6.8305

     occupation numbers 
     1.0000   1.0000   1.0000   1.0000   1.0000   1.0000   1.0000   1.0000
     1.0000   1.0000   0.0000   0.0000   0.0000   0.0000   0.0000   0.0000
     0.0000   0.0000   0.0000   0.0000   0.0000   0.0000   0.0000   0.0000
     0.0000   0.0000   0.0000   0.0000   0.0000   0.0000

     the Fermi energy is    -1.9104 ev

!    total energy              =     -61.96427069 Ry
     Harris-Foulkes estimate   =     -61.96427069 Ry
     estimated scf accuracy    <          3.4E-10 Ry

     The total energy is the sum of the following terms:

     one-electron contribution =    -437.87684562 Ry
     hartree contribution      =     222.16374240 Ry
     xc contribution           =     -23.63209661 Ry
     ewald contribution        =     177.38092913 Ry
     smearing contrib. (-TS)   =      -0.00000000 Ry

     convergence has been achieved in   9 iterations

     Forces acting on atoms (cartesian axes, Ry/au):

     atom    1 type  1   force =     0.00000000   -0.00195237    0.03527272
     atom    2 type  1   force =     0.00000000    0.00195712   -0.03527272
     atom    3 type  1   force =     0.00000000   -0.00195712   -0.03527272
     atom    4 type  1   force =     0.00000000    0.00195237    0.03527272
     The non-local contrib.  to forces
     atom    1 type  1   force =     0.00000000   -0.25444328    0.22179278
     atom    2 type  1   force =     0.00000000    0.25444240   -0.22178848
     atom    3 type  1   force =     0.00000000   -0.25444240   -0.22178848
     atom    4 type  1   force =     0.00000000    0.25444328    0.22179278
     The ionic contribution  to forces
     atom    1 type  1   force =    -0.00000000    1.39635482   -9.83417623
     atom    2 type  1   force =    -0.00000000   -1.39635602    9.83417623
     atom    3 type  1   force =     0.00000000    1.39635608    9.83417596
     atom    4 type  1   force =     0.00000000   -1.39635488   -9.83417596
     The local contribution  to forces
     atom    1 type  1   force =    -0.00000000   -1.15368622    9.65652206
     atom    2 type  1   force =    -0.00000000    1.15368711   -9.65653860
     atom    3 type  1   force =     0.00000000   -1.15368647   -9.65653846
     atom    4 type  1   force =     0.00000000    1.15368622    9.65652206
     The core correction contribution to forces
     atom    1 type  1   force =     0.00000000    0.00981702   -0.00885062
     atom    2 type  1   force =     0.00000000   -0.00981193    0.00886316
     atom    3 type  1   force =    -0.00000000    0.00981182    0.00886315
     atom    4 type  1   force =    -0.00000000   -0.00981702   -0.00885062
     The Hubbard contrib.    to forces
     atom    1 type  1   force =     0.00000000    0.00000000    0.00000000
     atom    2 type  1   force =     0.00000000    0.00000000    0.00000000
     atom    3 type  1   force =     0.00000000    0.00000000    0.00000000
     atom    4 type  1   force =     0.00000000    0.00000000    0.00000000
     The SCF correction term to forces
     atom    1 type  1   force =     0.00000000    0.00000526   -0.00000924
     atom    2 type  1   force =     0.00000000   -0.00000413    0.00002122
     atom    3 type  1   force =    -0.00000000    0.00000413    0.00002122
     atom    4 type  1   force =    -0.00000000   -0.00000526   -0.00000924

     Total force =     0.070654     Total SCF correction =     0.000034

     Writing output data file p.save
 
     init_run     :      2.47s CPU      1.46s WALL (       1 calls)
     electrons    :     74.64s CPU     40.25s WALL (       1 calls)
     forces       :      0.40s CPU      0.21s WALL (       1 calls)

     Called by init_run:
     wfcinit      :      1.97s CPU      1.09s WALL (       1 calls)
     wfcinit:atom :      0.02s CPU      0.01s WALL (      36 calls)
     wfcinit:wfcr :      1.85s CPU      1.02s WALL (      36 calls)
     potinit      :      0.12s CPU      0.07s WALL (       1 calls)

     Called by electrons:
     c_bands      :     66.36s CPU     35.81s WALL (      10 calls)
     sum_band     :      7.98s CPU      4.18s WALL (      10 calls)
     v_of_rho     :      0.04s CPU      0.02s WALL (      10 calls)
     v_h          :      0.01s CPU      0.01s WALL (      10 calls)
     v_xc         :      0.03s CPU      0.01s WALL (      11 calls)
     mix_rho      :      0.06s CPU      0.04s WALL (      10 calls)

     Called by c_bands:
     init_us_2    :      0.45s CPU      0.22s WALL (     792 calls)
     cegterg      :     65.14s CPU     34.21s WALL (     360 calls)

     Called by sum_band:

     Called by *egterg:
     h_psi        :     38.46s CPU     20.25s WALL (    1517 calls)
     g_psi        :      0.47s CPU      0.17s WALL (    1121 calls)
     cdiaghg      :     17.50s CPU      9.16s WALL (    1445 calls)
     cegterg:over :      3.21s CPU      1.63s WALL (    1121 calls)
     cegterg:upda :      3.16s CPU      1.70s WALL (    1121 calls)
     cegterg:last :      1.20s CPU      0.63s WALL (     396 calls)
     cdiaghg:chol :      0.60s CPU      0.31s WALL (    1445 calls)
     cdiaghg:inve :      0.15s CPU      0.08s WALL (    1445 calls)
     cdiaghg:para :      0.88s CPU      0.49s WALL (    2890 calls)

     Called by h_psi:
     h_psi:pot    :     37.82s CPU     20.03s WALL (    1517 calls)
     h_psi:calbec :      0.85s CPU      0.47s WALL (    1517 calls)
     vloc_psi     :     36.56s CPU     19.23s WALL (    1517 calls)
     add_vuspsi   :      0.35s CPU      0.32s WALL (    1517 calls)

     General routines
     calbec       :      0.92s CPU      0.50s WALL (    1661 calls)
     fft          :      0.08s CPU      0.08s WALL (      45 calls)
     fftw         :     40.08s CPU     20.96s WALL (   67228 calls)
 
     Parallel routines
     fft_scatt_xy :      9.19s CPU      2.28s WALL (   67273 calls)
     fft_scatt_yz :     16.80s CPU      7.78s WALL (   67273 calls)
 
     PWSCF        :  1m21.74s CPU     0m46.27s WALL

 
   This run was terminated on:  21:11:22  27Jul2018            

=------------------------------------------------------------------------------=
   JOB DONE.
=------------------------------------------------------------------------------=
