
     Program PWSCF v.6.2 starts on 27Jul2018 at 20: 4:45 

     This program is part of the open-source Quantum ESPRESSO suite
     for quantum simulation of materials; please cite
         "P. Giannozzi et al., J. Phys.:Condens. Matter 21 395502 (2009);
         "P. Giannozzi et al., J. Phys.:Condens. Matter 29 465901 (2017);
          URL http://www.quantum-espresso.org", 
     in publications or presentations arising from this work. More details at
     http://www.quantum-espresso.org/quote

     Parallel version (MPI & OpenMP), running on      64 processor cores
     Number of MPI processes:                32
     Threads/MPI process:                     2

     MPI processes distributed on     1 nodes
     R & G space division:  proc/nbgrp/npool/nimage =      32
     Waiting for input...
     Reading input from standard input

     Current dimensions of program PWSCF are:
     Max number of different atomic species (ntypx) = 20
     Max number of k-points (npk) =  40000
     Max angular momentum in pseudopotentials (lmaxx) =  3

     Subspace diagonalization in iterative solution of the eigenvalue problem:
     one sub-group per band group will be used
     scalapack distributed-memory algorithm (size of sub-group:  4*  4 procs)

 
     Parallelization info
     --------------------
     sticks:   dense  smooth     PW     G-vecs:    dense   smooth      PW
     Min          50      50     14                 9030     9030    1348
     Max          51      51     15                 9065     9065    1361
     Sum        1617    1617    463               289415   289415   43299
 


     bravais-lattice index     =            0
     lattice parameter (alat)  =       6.2737  a.u.
     unit-cell volume          =    2142.8622 (a.u.)^3
     number of atoms/cell      =            4
     number of atomic types    =            1
     number of electrons       =        20.00
     number of Kohn-Sham states=           14
     kinetic-energy cutoff     =     100.0000  Ry
     charge density cutoff     =     400.0000  Ry
     convergence threshold     =      1.0E-09
     mixing beta               =       0.7000
     number of iterations used =            8  plain     mixing
     Exchange-correlation      = PZ ( 1  1  0  0 0 0)

     celldm(1)=   6.273702  celldm(2)=   0.000000  celldm(3)=   0.000000
     celldm(4)=   0.000000  celldm(5)=   0.000000  celldm(6)=   0.000000

     crystal axes: (cart. coord. in units of alat)
               a(1) = (   1.000000   0.000000   0.000000 )  
               a(2) = (   0.000000   1.299858   0.000000 )  
               a(3) = (   0.000000   0.000000   6.676157 )  

     reciprocal axes: (cart. coord. in units 2 pi/alat)
               b(1) = (  1.000000  0.000000  0.000000 )  
               b(2) = (  0.000000  0.769315  0.000000 )  
               b(3) = (  0.000000  0.000000  0.149787 )  


     PseudoPot. # 1 for P  read from file:
     ./P.UPF
     MD5 check sum: b88c35a6f4b891eaa010a3085e4716c8
     Pseudo is Norm-conserving + core correction, Zval =  5.0
     Generated using "atomic" code by A. Dal Corso v.6.0 svn rev. 13079
     Using radial grid of 1147 points,  2 beta functions with: 
                l(1) =   0
                l(2) =   1

     atomic species   valence    mass     pseudopotential
       P               5.00    30.97400     P ( 1.00)

      4 Sym. Ops. (no inversion) found ( 2 have fractional translation)


                                    s                        frac. trans.

      isym =  1     identity                                     

 cryst.   s( 1) = (     1          0          0      )
                  (     0          1          0      )
                  (     0          0          1      )

 cart.    s( 1) = (  1.0000000  0.0000000  0.0000000 )
                  (  0.0000000  1.0000000  0.0000000 )
                  (  0.0000000  0.0000000  1.0000000 )


      isym =  2     180 deg rotation - cart. axis [0,0,1]        

 cryst.   s( 2) = (    -1          0          0      )    f =(  0.5000000 )
                  (     0         -1          0      )       (  0.4999999 )
                  (     0          0          1      )       (  0.0000000 )

 cart.    s( 2) = ( -1.0000000  0.0000000  0.0000000 )    f =(  0.5000000 )
                  (  0.0000000 -1.0000000  0.0000000 )       (  0.6499291 )
                  (  0.0000000  0.0000000  1.0000000 )       (  0.0000000 )


      isym =  3     inv. 180 deg rotation - cart. axis [0,1,0]   

 cryst.   s( 3) = (     1          0          0      )    f =(  0.5000000 )
                  (     0         -1          0      )       (  0.4999999 )
                  (     0          0          1      )       (  0.0000000 )

 cart.    s( 3) = (  1.0000000  0.0000000  0.0000000 )    f =(  0.5000000 )
                  (  0.0000000 -1.0000000  0.0000000 )       (  0.6499291 )
                  (  0.0000000  0.0000000  1.0000000 )       (  0.0000000 )


      isym =  4     inv. 180 deg rotation - cart. axis [1,0,0]   

 cryst.   s( 4) = (    -1          0          0      )
                  (     0          1          0      )
                  (     0          0          1      )

 cart.    s( 4) = ( -1.0000000  0.0000000  0.0000000 )
                  (  0.0000000  1.0000000  0.0000000 )
                  (  0.0000000  0.0000000  1.0000000 )


   Cartesian axes

     site n.     atom                  positions (alat units)
         1          P    tau(   1) = (   0.5000000   0.5432110   1.2355230  )
         2          P    tau(   2) = (   0.5000000   0.7566476   1.8874023  )
         3          P    tau(   3) = (   0.0000000   1.1931401   1.8874023  )
         4          P    tau(   4) = (   0.0000000   0.1067183   1.2355230  )

   Crystallographic axes

     site n.     atom                  positions (cryst. coord.)
         1          P    tau(   1) = (  0.5000000  0.4179001  0.1850650  )
         2          P    tau(   2) = (  0.5000000  0.5821000  0.2827079  )
         3          P    tau(   3) = (  0.0000000  0.9179000  0.2827079  )
         4          P    tau(   4) = (  0.0000000  0.0821000  0.1850650  )

     number of k points=    35  gaussian smearing, width (Ry)=  0.0010
                       cart. coord. in units 2pi/alat
        k(    1) = (   0.0000000   0.0000000   0.0000000), wk =   0.0185185
        k(    2) = (   0.0000000   0.0854794   0.0000000), wk =   0.0370370
        k(    3) = (   0.0000000   0.1709588   0.0000000), wk =   0.0370370
        k(    4) = (   0.0000000   0.2564382   0.0000000), wk =   0.0370370
        k(    5) = (   0.0000000   0.3419176   0.0000000), wk =   0.0370370
        k(    6) = (   0.0833333   0.0000000   0.0000000), wk =   0.0370370
        k(    7) = (   0.0833333   0.0854794   0.0000000), wk =   0.0740741
        k(    8) = (   0.0833333   0.1709588   0.0000000), wk =   0.0740741
        k(    9) = (   0.0833333   0.2564382   0.0000000), wk =   0.0740741
        k(   10) = (   0.0833333   0.3419176   0.0000000), wk =   0.0740741
        k(   11) = (   0.1666667   0.0000000   0.0000000), wk =   0.0370370
        k(   12) = (   0.1666667   0.0854794   0.0000000), wk =   0.0740741
        k(   13) = (   0.1666667   0.1709588   0.0000000), wk =   0.0740741
        k(   14) = (   0.1666667   0.2564382   0.0000000), wk =   0.0740741
        k(   15) = (   0.1666667   0.3419176   0.0000000), wk =   0.0740741
        k(   16) = (   0.2500000   0.0000000   0.0000000), wk =   0.0370370
        k(   17) = (   0.2500000   0.0854794   0.0000000), wk =   0.0740741
        k(   18) = (   0.2500000   0.1709588   0.0000000), wk =   0.0740741
        k(   19) = (   0.2500000   0.2564382   0.0000000), wk =   0.0740741
        k(   20) = (   0.2500000   0.3419176   0.0000000), wk =   0.0740741
        k(   21) = (   0.3333333   0.0000000   0.0000000), wk =   0.0370370
        k(   22) = (   0.3333333   0.0854794   0.0000000), wk =   0.0740741
        k(   23) = (   0.3333333   0.1709588   0.0000000), wk =   0.0740741
        k(   24) = (   0.3333333   0.2564382   0.0000000), wk =   0.0740741
        k(   25) = (   0.3333333   0.3419176   0.0000000), wk =   0.0740741
        k(   26) = (   0.4166667   0.0000000   0.0000000), wk =   0.0370370
        k(   27) = (   0.4166667   0.0854794   0.0000000), wk =   0.0740741
        k(   28) = (   0.4166667   0.1709588   0.0000000), wk =   0.0740741
        k(   29) = (   0.4166667   0.2564382   0.0000000), wk =   0.0740741
        k(   30) = (   0.4166667   0.3419176   0.0000000), wk =   0.0740741
        k(   31) = (  -0.5000000   0.0000000   0.0000000), wk =   0.0185185
        k(   32) = (  -0.5000000   0.0854794   0.0000000), wk =   0.0370370
        k(   33) = (  -0.5000000   0.1709588   0.0000000), wk =   0.0370370
        k(   34) = (  -0.5000000   0.2564382   0.0000000), wk =   0.0370370
        k(   35) = (  -0.5000000   0.3419176   0.0000000), wk =   0.0370370

                       cryst. coord.
        k(    1) = (   0.0000000   0.0000000   0.0000000), wk =   0.0185185
        k(    2) = (   0.0000000   0.1111111   0.0000000), wk =   0.0370370
        k(    3) = (   0.0000000   0.2222222   0.0000000), wk =   0.0370370
        k(    4) = (   0.0000000   0.3333333   0.0000000), wk =   0.0370370
        k(    5) = (   0.0000000   0.4444444   0.0000000), wk =   0.0370370
        k(    6) = (   0.0833333   0.0000000   0.0000000), wk =   0.0370370
        k(    7) = (   0.0833333   0.1111111   0.0000000), wk =   0.0740741
        k(    8) = (   0.0833333   0.2222222   0.0000000), wk =   0.0740741
        k(    9) = (   0.0833333   0.3333333   0.0000000), wk =   0.0740741
        k(   10) = (   0.0833333   0.4444444   0.0000000), wk =   0.0740741
        k(   11) = (   0.1666667   0.0000000   0.0000000), wk =   0.0370370
        k(   12) = (   0.1666667   0.1111111   0.0000000), wk =   0.0740741
        k(   13) = (   0.1666667   0.2222222   0.0000000), wk =   0.0740741
        k(   14) = (   0.1666667   0.3333333   0.0000000), wk =   0.0740741
        k(   15) = (   0.1666667   0.4444444   0.0000000), wk =   0.0740741
        k(   16) = (   0.2500000   0.0000000   0.0000000), wk =   0.0370370
        k(   17) = (   0.2500000   0.1111111   0.0000000), wk =   0.0740741
        k(   18) = (   0.2500000   0.2222222   0.0000000), wk =   0.0740741
        k(   19) = (   0.2500000   0.3333333   0.0000000), wk =   0.0740741
        k(   20) = (   0.2500000   0.4444444   0.0000000), wk =   0.0740741
        k(   21) = (   0.3333333   0.0000000   0.0000000), wk =   0.0370370
        k(   22) = (   0.3333333   0.1111111   0.0000000), wk =   0.0740741
        k(   23) = (   0.3333333   0.2222222   0.0000000), wk =   0.0740741
        k(   24) = (   0.3333333   0.3333333   0.0000000), wk =   0.0740741
        k(   25) = (   0.3333333   0.4444444   0.0000000), wk =   0.0740741
        k(   26) = (   0.4166667   0.0000000   0.0000000), wk =   0.0370370
        k(   27) = (   0.4166667   0.1111111   0.0000000), wk =   0.0740741
        k(   28) = (   0.4166667   0.2222222   0.0000000), wk =   0.0740741
        k(   29) = (   0.4166667   0.3333333   0.0000000), wk =   0.0740741
        k(   30) = (   0.4166667   0.4444444   0.0000000), wk =   0.0740741
        k(   31) = (  -0.5000000   0.0000000   0.0000000), wk =   0.0185185
        k(   32) = (  -0.5000000   0.1111111   0.0000000), wk =   0.0370370
        k(   33) = (  -0.5000000   0.2222222   0.0000000), wk =   0.0370370
        k(   34) = (  -0.5000000   0.3333333   0.0000000), wk =   0.0370370
        k(   35) = (  -0.5000000   0.4444444   0.0000000), wk =   0.0370370

     Dense  grid:   289415 G-vectors     FFT dimensions: (  40,  54, 270)

     Dynamical RAM for                 wfc:       0.24 MB

     Dynamical RAM for     wfc (w. buffer):       8.69 MB

     Dynamical RAM for           str. fact:       0.14 MB

     Dynamical RAM for           local pot:       0.00 MB

     Dynamical RAM for          nlocal pot:       0.28 MB

     Dynamical RAM for                qrad:       0.14 MB

     Dynamical RAM for          rho,v,vnew:       0.86 MB

     Dynamical RAM for               rhoin:       0.29 MB

     Dynamical RAM for            rho*nmix:       2.21 MB

     Dynamical RAM for           G-vectors:       0.59 MB

     Dynamical RAM for          h,s,v(r/c):       0.01 MB

     Dynamical RAM for          <psi|beta>:       0.00 MB

     Dynamical RAM for                 psi:       0.97 MB

     Dynamical RAM for                hpsi:       0.97 MB

     Dynamical RAM for      wfcinit/wfcrot:       0.56 MB

     Estimated static dynamical RAM per process >      14.20 MB

     Estimated max dynamical RAM per process >      16.15 MB

     Estimated total dynamical RAM >     516.67 MB

     Check: negative/imaginary core charge=   -0.000007    0.000000

     Initial potential from superposition of free atoms

     starting charge   19.99943, renormalised to   20.00000

     negative rho (up, down):  3.725E-06 0.000E+00
     Starting wfc are   16 randomized atomic wfcs

     total cpu time spent up to now is        1.3 secs

     Self-consistent Calculation

     iteration #  1     ecut=   100.00 Ry     beta= 0.70
     Davidson diagonalization with overlap
     ethr =  1.00E-02,  avg # of iterations =  3.1

     Threshold (ethr) on eigenvalues was too large:
     Diagonalizing with lowered threshold

     Davidson diagonalization with overlap
     ethr =  3.43E-04,  avg # of iterations =  2.5

     total cpu time spent up to now is        5.1 secs

     total energy              =     -62.25558554 Ry
     Harris-Foulkes estimate   =     -62.28055759 Ry
     estimated scf accuracy    <       0.06611253 Ry

     iteration #  2     ecut=   100.00 Ry     beta= 0.70
     Davidson diagonalization with overlap
     ethr =  3.31E-04,  avg # of iterations =  2.0

     total cpu time spent up to now is        6.6 secs

     total energy              =     -62.25856145 Ry
     Harris-Foulkes estimate   =     -62.26175710 Ry
     estimated scf accuracy    <       0.00567018 Ry

     iteration #  3     ecut=   100.00 Ry     beta= 0.70
     Davidson diagonalization with overlap
     ethr =  2.84E-05,  avg # of iterations =  3.0

     total cpu time spent up to now is        8.6 secs

     total energy              =     -62.25919727 Ry
     Harris-Foulkes estimate   =     -62.26127462 Ry
     estimated scf accuracy    <       0.00393194 Ry

     iteration #  4     ecut=   100.00 Ry     beta= 0.70
     Davidson diagonalization with overlap
     ethr =  1.97E-05,  avg # of iterations =  2.2

     total cpu time spent up to now is       10.4 secs

     total energy              =     -62.26015948 Ry
     Harris-Foulkes estimate   =     -62.26021713 Ry
     estimated scf accuracy    <       0.00012386 Ry

     iteration #  5     ecut=   100.00 Ry     beta= 0.70
     Davidson diagonalization with overlap
     ethr =  6.19E-07,  avg # of iterations =  2.6

     total cpu time spent up to now is       13.2 secs

     total energy              =     -62.26018547 Ry
     Harris-Foulkes estimate   =     -62.26019246 Ry
     estimated scf accuracy    <       0.00001531 Ry

     iteration #  6     ecut=   100.00 Ry     beta= 0.70
     Davidson diagonalization with overlap
     ethr =  7.65E-08,  avg # of iterations =  2.5

     total cpu time spent up to now is       14.8 secs

     total energy              =     -62.26018834 Ry
     Harris-Foulkes estimate   =     -62.26019274 Ry
     estimated scf accuracy    <       0.00001665 Ry

     iteration #  7     ecut=   100.00 Ry     beta= 0.70
     Davidson diagonalization with overlap
     ethr =  7.65E-08,  avg # of iterations =  2.0

     total cpu time spent up to now is       16.4 secs

     total energy              =     -62.26019040 Ry
     Harris-Foulkes estimate   =     -62.26019054 Ry
     estimated scf accuracy    <       0.00000010 Ry

     iteration #  8     ecut=   100.00 Ry     beta= 0.70
     Davidson diagonalization with overlap
     ethr =  5.11E-10,  avg # of iterations =  3.1

     total cpu time spent up to now is       18.3 secs

     total energy              =     -62.26019045 Ry
     Harris-Foulkes estimate   =     -62.26019045 Ry
     estimated scf accuracy    <          8.6E-09 Ry

     iteration #  9     ecut=   100.00 Ry     beta= 0.70
     Davidson diagonalization with overlap
     ethr =  4.28E-11,  avg # of iterations =  2.1

     total cpu time spent up to now is       20.0 secs

     End of self-consistent calculation

          k = 0.0000 0.0000 0.0000 ( 36111 PWs)   bands (ev):

   -17.3825 -14.8530 -10.8172  -8.0212  -6.8227  -6.5698  -5.8935  -4.2697
    -4.1542  -2.0482  -1.7527  -0.9305   0.2297   1.4734

     occupation numbers 
     1.0000   1.0000   1.0000   1.0000   1.0000   1.0000   1.0000   1.0000
     1.0000   1.0000   0.0000   0.0000   0.0000   0.0000

          k = 0.0000 0.0855 0.0000 ( 36110 PWs)   bands (ev):

   -17.3118 -14.9012 -10.9779  -8.2991  -6.6188  -6.4653  -5.8387  -4.2955
    -3.7076  -2.6655  -1.2028  -0.8792   0.1112   1.3261

     occupation numbers 
     1.0000   1.0000   1.0000   1.0000   1.0000   1.0000   1.0000   1.0000
     1.0000   1.0000   0.0000   0.0000   0.0000   0.0000

          k = 0.0000 0.1710 0.0000 ( 36124 PWs)   bands (ev):

   -17.1035 -15.0735 -11.2340  -8.9936  -6.5112  -5.6795  -5.6092  -4.3853
    -3.4660  -2.8264  -0.7616  -0.4858  -0.2394   1.0461

     occupation numbers 
     1.0000   1.0000   1.0000   1.0000   1.0000   1.0000   1.0000   1.0000
     1.0000   1.0000   0.0000   0.0000   0.0000   0.0000

          k = 0.0000 0.2564 0.0000 ( 36114 PWs)   bands (ev):

   -16.7704 -15.4049 -11.2809  -9.7912  -6.1802  -5.4332  -4.6097  -4.5610
    -4.2223  -2.2179  -0.5860  -0.5343   0.2458   0.8853

     occupation numbers 
     1.0000   1.0000   1.0000   1.0000   1.0000   1.0000   1.0000   1.0000
     1.0000   1.0000   0.0000   0.0000   0.0000   0.0000

          k = 0.0000 0.3419 0.0000 ( 36134 PWs)   bands (ev):

   -16.3389 -15.8573 -11.0225 -10.5005  -5.6786  -5.1315  -5.0438  -4.8224
    -3.4812  -2.5796  -0.4439  -0.3577   0.9281   0.9773

     occupation numbers 
     1.0000   1.0000   1.0000   1.0000   1.0000   1.0000   1.0000   1.0000
     1.0000   1.0000   0.0000   0.0000   0.0000   0.0000

          k = 0.0833 0.0000 0.0000 ( 36084 PWs)   bands (ev):

   -17.2996 -14.7676 -10.8891  -7.9542  -6.7486  -6.7121  -6.3070  -4.6502
    -4.1088  -2.0557  -1.6739  -0.2872   0.8754   0.9859

     occupation numbers 
     1.0000   1.0000   1.0000   1.0000   1.0000   1.0000   1.0000   1.0000
     1.0000   1.0000   0.0000   0.0000   0.0000   0.0000

          k = 0.0833 0.0855 0.0000 ( 36129 PWs)   bands (ev):

   -17.2291 -14.8168 -11.0242  -8.2519  -6.6846  -6.6793  -5.9806  -4.7831
    -3.6490  -2.6400  -1.1676  -0.2276   0.6136   1.0242

     occupation numbers 
     1.0000   1.0000   1.0000   1.0000   1.0000   1.0000   1.0000   1.0000
     1.0000   1.0000   0.0000   0.0000   0.0000   0.0000

          k = 0.0833 0.1710 0.0000 ( 36153 PWs)   bands (ev):

   -17.0214 -14.9916 -11.2390  -8.9558  -6.5033  -6.4949  -5.1706  -4.9503
    -3.4304  -2.8968  -0.5913  -0.0027   0.3076   0.9185

     occupation numbers 
     1.0000   1.0000   1.0000   1.0000   1.0000   1.0000   1.0000   1.0000
     1.0000   1.0000   0.0000   0.0000   0.0000   0.0000

          k = 0.0833 0.2564 0.0000 ( 36149 PWs)   bands (ev):

   -16.6892 -15.3252 -11.2575  -9.7500  -6.2138  -6.1441  -5.1798  -4.3387
    -4.0672  -2.4481  -0.1704   0.1609   0.4202   0.8663

     occupation numbers 
     1.0000   1.0000   1.0000   1.0000   1.0000   1.0000   1.0000   1.0000
     1.0000   1.0000   0.0000   0.0000   0.0000   0.0000

          k = 0.0833 0.3419 0.0000 ( 36124 PWs)   bands (ev):

   -16.2588 -15.7781 -10.9846 -10.4578  -5.8655  -5.6371  -5.4939  -4.9930
    -3.2235  -2.5827   0.0205   0.0452   0.7619   0.9865

     occupation numbers 
     1.0000   1.0000   1.0000   1.0000   1.0000   1.0000   1.0000   1.0000
     1.0000   1.0000   0.0000   0.0000   0.0000   0.0000

          k = 0.1667 0.0000 0.0000 ( 36170 PWs)   bands (ev):

   -17.0518 -14.5121 -11.1687  -7.7583  -7.3380  -7.0061  -6.5296  -5.0725
    -3.9970  -2.2277  -1.4396   0.0358   1.2657   1.8757

     occupation numbers 
     1.0000   1.0000   1.0000   1.0000   1.0000   1.0000   1.0000   1.0000
     1.0000   1.0000   0.0000   0.0000   0.0000   0.0000

          k = 0.1667 0.0855 0.0000 ( 36172 PWs)   bands (ev):

   -16.9819 -14.5649 -11.2302  -8.1802  -7.3154  -7.0670  -5.8973  -5.3398
    -3.6408  -2.6534  -1.0719  -0.0310   1.2776   2.0220

     occupation numbers 
     1.0000   1.0000   1.0000   1.0000   1.0000   1.0000   1.0000   1.0000
     1.0000   1.0000   0.0000   0.0000   0.0000   0.0000

          k = 0.1667 0.1710 0.0000 ( 36183 PWs)   bands (ev):

   -16.7762 -14.7483 -11.3120  -8.8983  -7.4559  -6.7187  -5.6884  -4.9175
    -3.3572  -3.2320  -0.4885   0.2069   0.9435   1.7243

     occupation numbers 
     1.0000   1.0000   1.0000   1.0000   1.0000   1.0000   1.0000   1.0000
     1.0000   1.0000   0.0000   0.0000   0.0000   0.0000

          k = 0.1667 0.2564 0.0000 ( 36199 PWs)   bands (ev):

   -16.4472 -15.0891 -11.2313  -9.6674  -7.3390  -6.4989  -5.8341  -4.2778
    -3.7941  -3.0946   0.1445   0.4396   0.9023   1.7003

     occupation numbers 
     1.0000   1.0000   1.0000   1.0000   1.0000   1.0000   1.0000   1.0000
     1.0000   1.0000   0.0000   0.0000   0.0000   0.0000

          k = 0.1667 0.3419 0.0000 ( 36178 PWs)   bands (ev):

   -16.0208 -15.5431 -10.9071 -10.3649  -7.0550  -6.7071  -5.4817  -4.8845
    -3.2741  -3.0846   0.3843   0.8052   0.8264   1.4221

     occupation numbers 
     1.0000   1.0000   1.0000   1.0000   1.0000   1.0000   1.0000   1.0000
     1.0000   1.0000   0.0000   0.0000   0.0000   0.0000

          k = 0.2500 0.0000 0.0000 ( 36142 PWs)   bands (ev):

   -16.6420 -14.0881 -11.7635  -8.4325  -7.4532  -7.3988  -6.1776  -5.0619
    -3.9143  -2.6142  -1.0583  -0.8085   1.0526   1.4548

     occupation numbers 
     1.0000   1.0000   1.0000   1.0000   1.0000   1.0000   1.0000   1.0000
     1.0000   1.0000   0.0000   0.0000   0.0000   0.0000

          k = 0.2500 0.0855 0.0000 ( 36173 PWs)   bands (ev):

   -16.5735 -14.1502 -11.7349  -8.6300  -7.7365  -7.3710  -5.6324  -5.3453
    -3.8101  -2.8348  -0.8552  -0.6137   0.8345   1.4993

     occupation numbers 
     1.0000   1.0000   1.0000   1.0000   1.0000   1.0000   1.0000   1.0000
     1.0000   1.0000   0.0000   0.0000   0.0000   0.0000

          k = 0.2500 0.1710 0.0000 ( 36209 PWs)   bands (ev):

   -16.3718 -14.3545 -11.6196  -9.1165  -8.0907  -7.2700  -5.7007  -4.7845
    -3.8353  -3.2919  -0.3837   0.1335   0.1447   2.3642

     occupation numbers 
     1.0000   1.0000   1.0000   1.0000   1.0000   1.0000   1.0000   1.0000
     1.0000   1.0000   0.0000   0.0000   0.0000   0.0000

          k = 0.2500 0.2564 0.0000 ( 36207 PWs)   bands (ev):

   -16.0497 -14.7093 -11.3621  -9.7422  -8.1694  -7.3776  -5.7155  -4.4699
    -3.8916  -3.5714  -0.0816   0.2700   1.1706   2.0141

     occupation numbers 
     1.0000   1.0000   1.0000   1.0000   1.0000   1.0000   1.0000   1.0000
     1.0000   1.0000   0.0000   0.0000   0.0000   0.0000

          k = 0.2500 0.3419 0.0000 ( 36227 PWs)   bands (ev):

   -15.6321 -15.1627 -10.9409 -10.3814  -8.0014  -7.6873  -5.3830  -4.8864
    -3.8029  -3.6373   0.3575   1.0525   1.0813   1.7434

     occupation numbers 
     1.0000   1.0000   1.0000   1.0000   1.0000   1.0000   1.0000   1.0000
     1.0000   1.0000   0.0000   0.0000   0.0000   0.0000

          k = 0.3333 0.0000 0.0000 ( 36194 PWs)   bands (ev):

   -16.0761 -13.4985 -12.6265  -9.6437  -7.3771  -7.0909  -5.7208  -4.8589
    -4.0297  -3.1812  -1.1739  -0.5714  -0.0171   0.5065

     occupation numbers 
     1.0000   1.0000   1.0000   1.0000   1.0000   1.0000   1.0000   1.0000
     1.0000   1.0000   0.0000   0.0000   0.0000   0.0000

          k = 0.3333 0.0855 0.0000 ( 36189 PWs)   bands (ev):

   -16.0101 -13.6005 -12.5118  -9.7127  -7.7120  -7.1231  -5.3265  -5.1609
    -4.1491  -3.2174  -0.6949  -0.5159  -0.0401   0.4063

     occupation numbers 
     1.0000   1.0000   1.0000   1.0000   1.0000   1.0000   1.0000   1.0000
     1.0000   1.0000   0.0000   0.0000   0.0000   0.0000

          k = 0.3333 0.1710 0.0000 ( 36197 PWs)   bands (ev):

   -15.8165 -13.8606 -12.2229  -9.9351  -8.1718  -7.2600  -5.6625  -4.8921
    -4.3230  -3.2530  -0.5784  -0.1735   0.4063   1.3454

     occupation numbers 
     1.0000   1.0000   1.0000   1.0000   1.0000   1.0000   1.0000   1.0000
     1.0000   1.0000   0.0000   0.0000   0.0000   0.0000

          k = 0.3333 0.2564 0.0000 ( 36232 PWs)   bands (ev):

   -15.5086 -14.2304 -11.8195 -10.3184  -8.3896  -7.5829  -5.8825  -4.9965
    -4.3101  -3.3724  -0.3185   0.3192   1.4728   1.6068

     occupation numbers 
     1.0000   1.0000   1.0000   1.0000   1.0000   1.0000   1.0000   1.0000
     1.0000   1.0000   0.0000   0.0000   0.0000   0.0000

          k = 0.3333 0.3419 0.0000 ( 36245 PWs)   bands (ev):

   -15.1117 -14.6669 -11.3352 -10.8124  -8.3138  -8.0017  -5.7363  -5.3787
    -4.0787  -3.7137   0.2797   0.9002   1.2134   2.0090

     occupation numbers 
     1.0000   1.0000   1.0000   1.0000   1.0000   1.0000   1.0000   1.0000
     1.0000   1.0000   0.0000   0.0000   0.0000   0.0000

          k = 0.4167 0.0000 0.0000 ( 36164 PWs)   bands (ev):

   -15.3640 -13.5891 -12.7480 -10.8011  -7.1018  -6.8049  -5.2243  -4.7089
    -4.2797  -3.7976  -0.9439  -0.7325  -0.5244   0.3264

     occupation numbers 
     1.0000   1.0000   1.0000   1.0000   1.0000   1.0000   1.0000   1.0000
     1.0000   1.0000   0.0000   0.0000   0.0000   0.0000

          k = 0.4167 0.0855 0.0000 ( 36179 PWs)   bands (ev):

   -15.3035 -13.6056 -12.7024 -10.8375  -7.3785  -6.8626  -5.2223  -5.1598
    -4.1747  -3.6236  -0.8506  -0.6707  -0.1248   0.1806

     occupation numbers 
     1.0000   1.0000   1.0000   1.0000   1.0000   1.0000   1.0000   1.0000
     1.0000   1.0000   0.0000   0.0000   0.0000   0.0000

          k = 0.4167 0.1710 0.0000 ( 36189 PWs)   bands (ev):

   -15.1272 -13.6835 -12.5551 -10.9648  -7.8231  -7.0043  -5.9934  -5.3099
    -4.1709  -3.3421  -0.8269   0.1894   0.2567   0.9300

     occupation numbers 
     1.0000   1.0000   1.0000   1.0000   1.0000   1.0000   1.0000   1.0000
     1.0000   1.0000   0.0000   0.0000   0.0000   0.0000

          k = 0.4167 0.2564 0.0000 ( 36255 PWs)   bands (ev):

   -14.8528 -13.8692 -12.2963 -11.2107  -8.0665  -7.2413  -6.5353  -5.7235
    -4.0763  -3.3622  -0.3117   0.5946   0.7145   1.7853

     occupation numbers 
     1.0000   1.0000   1.0000   1.0000   1.0000   1.0000   1.0000   1.0000
     1.0000   1.0000   0.0000   0.0000   0.0000   0.0000

          k = 0.4167 0.3419 0.0000 ( 36286 PWs)   bands (ev):

   -14.5138 -14.1635 -11.9469 -11.5601  -8.0047  -7.6715  -6.5295  -6.1910
    -3.8539  -3.5811   0.0017   0.3543   1.6793   2.4743

     occupation numbers 
     1.0000   1.0000   1.0000   1.0000   1.0000   1.0000   1.0000   1.0000
     1.0000   1.0000   0.0000   0.0000   0.0000   0.0000

          k =-0.5000 0.0000 0.0000 ( 36140 PWs)   bands (ev):

   -14.5238 -14.5238 -11.8445 -11.8445  -6.8157  -6.8157  -4.8268  -4.8268
    -4.2438  -4.2438  -0.8840  -0.8840  -0.3170  -0.3170

     occupation numbers 
     1.0000   1.0000   1.0000   1.0000   1.0000   1.0000   1.0000   1.0000
     1.0000   1.0000   0.0000   0.0000   0.0000   0.0000

          k =-0.5000 0.0855 0.0000 ( 36152 PWs)   bands (ev):

   -14.4767 -14.4767 -11.8601 -11.8601  -6.9729  -6.9729  -5.2457  -5.2457
    -3.9088  -3.9088  -1.0264  -1.0264   0.3862   0.3862

     occupation numbers 
     1.0000   1.0000   1.0000   1.0000   1.0000   1.0000   1.0000   1.0000
     1.0000   1.0000   0.0000   0.0000   0.0000   0.0000

          k =-0.5000 0.1710 0.0000 ( 36206 PWs)   bands (ev):

   -14.3472 -14.3472 -11.9174 -11.9174  -7.2792  -7.2792  -5.8405  -5.8405
    -3.7106  -3.7106  -0.4914  -0.4914   0.7294   0.7294

     occupation numbers 
     1.0000   1.0000   1.0000   1.0000   1.0000   1.0000   1.0000   1.0000
     1.0000   1.0000   0.0000   0.0000   0.0000   0.0000

          k =-0.5000 0.2564 0.0000 ( 36266 PWs)   bands (ev):

   -14.1760 -14.1760 -12.0224 -12.0224  -7.4556  -7.4556  -6.4540  -6.4540
    -3.6517  -3.6517   0.0463   0.0463   1.1639   1.1639

     occupation numbers 
     1.0000   1.0000   1.0000   1.0000   1.0000   1.0000   1.0000   1.0000
     1.0000   1.0000   0.0000   0.0000   0.0000   0.0000

          k =-0.5000 0.3419 0.0000 ( 36324 PWs)   bands (ev):

   -14.0440 -14.0440 -12.1222 -12.1222  -7.3664  -7.3664  -6.9896  -6.9896
    -3.6064  -3.6064  -0.0277  -0.0277   2.3081   2.3081

     occupation numbers 
     1.0000   1.0000   1.0000   1.0000   1.0000   1.0000   1.0000   1.0000
     1.0000   1.0000   0.0000   0.0000   0.0000   0.0000

     the Fermi energy is    -1.8541 ev

!    total energy              =     -62.26019045 Ry
     Harris-Foulkes estimate   =     -62.26019045 Ry
     estimated scf accuracy    <          8.6E-10 Ry

     The total energy is the sum of the following terms:

     one-electron contribution =    -438.16085107 Ry
     hartree contribution      =     222.10685719 Ry
     xc contribution           =     -23.58712570 Ry
     ewald contribution        =     177.38092913 Ry
     smearing contrib. (-TS)   =      -0.00000000 Ry

     convergence has been achieved in   9 iterations

     Forces acting on atoms (cartesian axes, Ry/au):

     atom    1 type  1   force =     0.00000000    0.00916453    0.01662694
     atom    2 type  1   force =     0.00000000   -0.00915955   -0.01662694
     atom    3 type  1   force =     0.00000000    0.00915955   -0.01662694
     atom    4 type  1   force =     0.00000000   -0.00916453    0.01662694
     The non-local contrib.  to forces
     atom    1 type  1   force =     0.00000000   -0.23927978    0.27665880
     atom    2 type  1   force =     0.00000000    0.23926057   -0.27663501
     atom    3 type  1   force =     0.00000000   -0.23926057   -0.27663501
     atom    4 type  1   force =     0.00000000    0.23927978    0.27665880
     The ionic contribution  to forces
     atom    1 type  1   force =    -0.00000000    1.39635482   -9.83417623
     atom    2 type  1   force =    -0.00000000   -1.39635602    9.83417623
     atom    3 type  1   force =     0.00000000    1.39635608    9.83417596
     atom    4 type  1   force =     0.00000000   -1.39635488   -9.83417596
     The local contribution  to forces
     atom    1 type  1   force =    -0.00000000   -1.15708728    9.58676431
     atom    2 type  1   force =    -0.00000000    1.15713230   -9.58684027
     atom    3 type  1   force =     0.00000000   -1.15713171   -9.58684010
     atom    4 type  1   force =     0.00000000    1.15708728    9.58676431
     The core correction contribution to forces
     atom    1 type  1   force =     0.00000000    0.00918722   -0.01262918
     atom    2 type  1   force =     0.00000000   -0.00918080    0.01263887
     atom    3 type  1   force =    -0.00000000    0.00918070    0.01263887
     atom    4 type  1   force =    -0.00000000   -0.00918722   -0.01262918
     The Hubbard contrib.    to forces
     atom    1 type  1   force =     0.00000000    0.00000000    0.00000000
     atom    2 type  1   force =     0.00000000    0.00000000    0.00000000
     atom    3 type  1   force =     0.00000000    0.00000000    0.00000000
     atom    4 type  1   force =     0.00000000    0.00000000    0.00000000
     The SCF correction term to forces
     atom    1 type  1   force =     0.00000000   -0.00001047    0.00001423
     atom    2 type  1   force =     0.00000000   -0.00001532    0.00003841
     atom    3 type  1   force =    -0.00000000    0.00001532    0.00003841
     atom    4 type  1   force =    -0.00000000    0.00001047    0.00001423

     Total force =     0.037968     Total SCF correction =     0.000064

     Writing output data file p.save
 
     init_run     :      1.66s CPU      1.00s WALL (       1 calls)
     electrons    :     33.99s CPU     18.79s WALL (       1 calls)
     forces       :      0.36s CPU      0.19s WALL (       1 calls)

     Called by init_run:
     wfcinit      :      1.14s CPU      0.63s WALL (       1 calls)
     wfcinit:atom :      0.00s CPU      0.01s WALL (      35 calls)
     wfcinit:wfcr :      1.02s CPU      0.57s WALL (      35 calls)
     potinit      :      0.12s CPU      0.06s WALL (       1 calls)

     Called by electrons:
     c_bands      :     29.83s CPU     16.53s WALL (      10 calls)
     sum_band     :      3.91s CPU      2.05s WALL (      10 calls)
     v_of_rho     :      0.04s CPU      0.02s WALL (      10 calls)
     v_h          :      0.02s CPU      0.01s WALL (      10 calls)
     v_xc         :      0.02s CPU      0.01s WALL (      11 calls)
     mix_rho      :      0.05s CPU      0.04s WALL (      10 calls)

     Called by c_bands:
     init_us_2    :      0.38s CPU      0.19s WALL (     770 calls)
     cegterg      :     28.74s CPU     15.02s WALL (     350 calls)

     Called by sum_band:

     Called by *egterg:
     h_psi        :     18.52s CPU      9.77s WALL (    1262 calls)
     g_psi        :      0.29s CPU      0.08s WALL (     877 calls)
     cdiaghg      :      6.99s CPU      3.58s WALL (    1192 calls)
     cegterg:over :      0.97s CPU      0.62s WALL (     877 calls)
     cegterg:upda :      1.36s CPU      0.74s WALL (     877 calls)
     cegterg:last :      0.31s CPU      0.19s WALL (     350 calls)
     cdiaghg:chol :      0.38s CPU      0.19s WALL (    1192 calls)
     cdiaghg:inve :      0.12s CPU      0.05s WALL (    1192 calls)
     cdiaghg:para :      0.53s CPU      0.26s WALL (    2384 calls)

     Called by h_psi:
     h_psi:pot    :     18.32s CPU      9.68s WALL (    1262 calls)
     h_psi:calbec :      0.53s CPU      0.33s WALL (    1262 calls)
     vloc_psi     :     17.60s CPU      9.21s WALL (    1262 calls)
     add_vuspsi   :      0.16s CPU      0.13s WALL (    1262 calls)

     General routines
     calbec       :      0.58s CPU      0.34s WALL (    1402 calls)
     fft          :      0.11s CPU      0.09s WALL (      45 calls)
     fftw         :     19.31s CPU     10.04s WALL (   30996 calls)
 
     Parallel routines
     fft_scatt_xy :      4.66s CPU      1.08s WALL (   31041 calls)
     fft_scatt_yz :      7.75s CPU      3.72s WALL (   31041 calls)
 
     PWSCF        :    37.82s CPU        27.19s WALL

 
   This run was terminated on:  20: 5:12  27Jul2018            

=------------------------------------------------------------------------------=
   JOB DONE.
=------------------------------------------------------------------------------=
