
     Program PWSCF v.6.0 (svn rev. 13079) starts on 27Jul2018 at 11:24:15 

     This program is part of the open-source Quantum ESPRESSO suite
     for quantum simulation of materials; please cite
         "P. Giannozzi et al., J. Phys.:Condens. Matter 21 395502 (2009);
          URL http://www.quantum-espresso.org", 
     in publications or presentations arising from this work. More details at
     http://www.quantum-espresso.org/quote

     Serial version
     Waiting for input...
     Reading input from standard input
     Message from routine read_cards :
     DEPRECATED: no units specified in CELL_PARAMETERS card

     Current dimensions of program PWSCF are:
     Max number of different atomic species (ntypx) = 10
     Max number of k-points (npk) =  40000
     Max angular momentum in pseudopotentials (lmaxx) =  3
 
     G-vector sticks info
     --------------------
     sticks:   dense  smooth     PW     G-vecs:    dense   smooth      PW
     Sum       15793   15793   4149              1493013  1493013  200597
 


     bravais-lattice index     =            0
     lattice parameter (alat)  =       4.5000  a.u.
     unit-cell volume          =    3906.9844 (a.u.)^3
     number of atoms/cell      =            1
     number of atomic types    =            1
     number of electrons       =        10.00 (up:   9.00, down:   1.00)
     number of Kohn-Sham states=           25
     kinetic-energy cutoff     =     200.0000  Ry
     charge density cutoff     =     800.0000  Ry
     convergence threshold     =      5.0E-06
     mixing beta               =       0.7000
     number of iterations used =            4  local-TF  mixing
     Exchange-correlation      = PZ ( 1  1  0  0 0 0)

     celldm(1)=   4.500000  celldm(2)=   0.000000  celldm(3)=   0.000000
     celldm(4)=   0.000000  celldm(5)=   0.000000  celldm(6)=   0.000000

     crystal axes: (cart. coord. in units of alat)
               a(1) = (   3.500000   0.000000   0.000000 )  
               a(2) = (   0.000000   3.500000   0.000000 )  
               a(3) = (   0.000000   0.000000   3.500000 )  

     reciprocal axes: (cart. coord. in units 2 pi/alat)
               b(1) = (  0.285714  0.000000  0.000000 )  
               b(2) = (  0.000000  0.285714  0.000000 )  
               b(3) = (  0.000000  0.000000  0.285714 )  


     PseudoPot. # 1 for Gd read from file:
     ./Gd.UPF
     MD5 check sum: 0373172b4c2d465485b0640db28dbc92
     Pseudo is Norm-conserving + core correction, Zval = 10.0
     Generated using "atomic" code by A. Dal Corso  v.6.0 svn rev. 13079
     Using radial grid of 1263 points,  3 beta functions with: 
                l(1) =   1
                l(2) =   2
                l(3) =   3

     atomic species   valence    mass     pseudopotential
        Gd            10.00    12.00000     Gd( 1.00)

     Starting magnetic structure 
     atomic species   magnetization
        Gd           0.000

     48 Sym. Ops., with inversion, found



   Cartesian axes

     site n.     atom                  positions (alat units)
         1           Gd  tau(   1) = (   1.7500000   1.7500000   1.7500000  )

     number of k points=     4
                       cart. coord. in units 2pi/alat
        k(    1) = (   0.0000000   0.0000000   0.0000000), wk =   0.1250000
        k(    2) = (   0.0000000   0.0000000  -0.1428571), wk =   0.3750000
        k(    3) = (   0.0000000  -0.1428571  -0.1428571), wk =   0.3750000
        k(    4) = (  -0.1428571  -0.1428571  -0.1428571), wk =   0.1250000

     Dense  grid:  1493013 G-vectors     FFT dimensions: ( 141, 141, 141)

     Estimated max dynamical RAM per process >    2308.43Mb
     Generating pointlists ...
     new r_m :   0.4125 (alat units)  1.8563 (a.u.) for type    1
dfftp%nnr =2803221
    141    141    141    141    141    141
SIZE(dfftp%isind) =   19881
bg(1:3,1):   0.2857  0.0000  0.0000
bg(1:3,2):   0.0000  0.2857  0.0000
bg(1:3,3):   0.0000  0.0000  0.2857
at(1:3,1):   3.5000  0.0000  0.0000
at(1:3,2):   0.0000  3.5000  0.0000
at(1:3,3):   0.0000  0.0000  3.5000
nt =     1 na =    1
tau(:,na) =    1.75000   1.75000   1.75000
  k    rho_core(k)
       1   0.00000E+00
       2   0.00000E+00
       3   0.00000E+00
       4   0.00000E+00
       5   0.00000E+00
       6   0.00000E+00
       7   0.00000E+00
       8   0.00000E+00
       9   0.00000E+00
      10   0.00000E+00
      11   0.00000E+00
      12   0.00000E+00
      13   0.00000E+00
      14   0.00000E+00
      15   0.00000E+00
      16   0.00000E+00
      17   0.00000E+00
      18   0.00000E+00
      19   0.00000E+00
      20   0.00000E+00
      21   0.00000E+00
      22   0.00000E+00
      23   0.00000E+00
      24   0.00000E+00
      25   0.00000E+00
      26   0.00000E+00
      27   0.00000E+00
      28   0.00000E+00
      29   0.00000E+00
      30   0.00000E+00
      31   0.00000E+00
      32   0.00000E+00
      33   0.00000E+00
      34   0.00000E+00
      35   0.00000E+00
      36   0.00000E+00
      37   0.00000E+00
      38   0.00000E+00
      39   0.00000E+00
      40   0.00000E+00
      41   0.00000E+00
      42   0.00000E+00
      43   0.00000E+00
      44   0.00000E+00
      45   0.00000E+00
      46   0.00000E+00
      47   0.00000E+00
      48   0.00000E+00
      49   0.00000E+00
      50   0.00000E+00
      51   0.00000E+00
      52   0.00000E+00
      53   0.00000E+00
      54   0.00000E+00
      55   0.00000E+00
      56   0.00000E+00
      57   0.00000E+00
      58   0.00000E+00
      59   0.00000E+00
      60   0.00000E+00
      61   0.00000E+00
      62   0.00000E+00
      63   0.00000E+00
      64   0.00000E+00
      65   0.00000E+00
      66   0.00000E+00
      67   0.00000E+00
      68   0.00000E+00
      69   0.00000E+00
      70   0.00000E+00
      71   0.00000E+00
      72   0.00000E+00
      73   0.00000E+00
      74   0.00000E+00
      75   0.00000E+00
      76   0.00000E+00
      77   0.00000E+00
      78   0.00000E+00
      79   0.00000E+00
      80   0.00000E+00
      81   0.00000E+00
      82   0.00000E+00
      83   0.00000E+00
      84   0.00000E+00
      85   0.00000E+00
      86   0.00000E+00
      87   0.00000E+00
      88   0.00000E+00
      89   0.00000E+00
      90   0.00000E+00
      91   0.00000E+00
      92   0.00000E+00
      93   0.00000E+00
      94   0.00000E+00
      95   0.00000E+00
      96   0.00000E+00
      97   0.00000E+00
      98   0.00000E+00
      99   0.00000E+00
     100   0.00000E+00
     101   0.00000E+00
     102   0.00000E+00
     103   0.00000E+00
     104   0.00000E+00
     105   0.00000E+00
     106   0.00000E+00
     107   0.00000E+00
     108   0.00000E+00
     109   0.00000E+00
     110   0.00000E+00
     111   0.00000E+00
     112   0.00000E+00
     113   0.00000E+00
     114   0.00000E+00
     115   0.00000E+00
     116   0.00000E+00
     117   0.00000E+00
     118   0.00000E+00
     119   0.00000E+00
     120   0.00000E+00
     121   0.00000E+00
     122   0.00000E+00
     123   0.00000E+00
     124   0.00000E+00
     125   0.00000E+00
     126   0.00000E+00
     127   0.00000E+00
     128   0.00000E+00
     129   0.00000E+00
     130   0.00000E+00
     131   0.00000E+00
     132   0.00000E+00
     133   0.00000E+00
     134   0.00000E+00
     135   0.00000E+00
     136   0.00000E+00
     137   0.00000E+00
     138   0.00000E+00
     139   0.00000E+00
     140   0.00000E+00
     141   0.00000E+00
     142   0.00000E+00
     143   0.00000E+00
     144   0.00000E+00
     145   0.00000E+00
     146   0.00000E+00
     147   0.00000E+00
     148   0.00000E+00
     149   0.00000E+00
     150   0.00000E+00
     151   0.00000E+00
     152   0.00000E+00
     153   0.00000E+00
     154   0.00000E+00
     155   0.00000E+00
     156   0.00000E+00
     157   0.00000E+00
     158   0.00000E+00
     159   0.00000E+00
     160   0.00000E+00
     161   0.00000E+00
     162   0.00000E+00
     163   0.00000E+00
     164   0.00000E+00
     165   0.00000E+00
     166   0.00000E+00
     167   0.00000E+00
     168   0.00000E+00
     169   0.00000E+00
     170   0.00000E+00
     171   0.00000E+00
     172   0.00000E+00
     173   0.00000E+00
     174   0.00000E+00
     175   0.00000E+00
     176   0.00000E+00
     177   0.00000E+00
     178   0.00000E+00
     179   0.00000E+00
     180   0.00000E+00
     181   0.00000E+00
     182   0.00000E+00
     183   0.00000E+00
     184   0.00000E+00
     185   0.00000E+00
     186   0.00000E+00
     187   0.00000E+00
     188   0.00000E+00
     189   0.00000E+00
     190   0.00000E+00
     191   0.00000E+00
     192   0.00000E+00
     193   0.00000E+00
     194   0.00000E+00
     195   0.00000E+00
     196   0.00000E+00
     197   0.00000E+00
     198   0.00000E+00
     199   0.00000E+00
     200   0.00000E+00
     201   0.00000E+00
     202   0.00000E+00
     203   0.00000E+00
     204   0.00000E+00
     205   0.00000E+00
     206   0.00000E+00
     207   0.00000E+00
     208   0.00000E+00
     209   0.00000E+00
     210   0.00000E+00
     211   0.00000E+00
     212   0.00000E+00
     213   0.00000E+00
     214   0.00000E+00
     215   0.00000E+00
     216   0.00000E+00
     217   0.00000E+00
     218   0.00000E+00
     219   0.00000E+00
     220   0.00000E+00
     221   0.00000E+00
     222   0.00000E+00
     223   0.00000E+00
     224   0.00000E+00
     225   0.00000E+00
     226   0.00000E+00
     227   0.00000E+00
     228   0.00000E+00
     229   0.00000E+00
     230   0.00000E+00
     231   0.00000E+00
     232   0.00000E+00
     233   0.00000E+00
     234   0.00000E+00
     235   0.00000E+00
     236   0.00000E+00
     237   0.00000E+00
     238   0.00000E+00
     239   0.00000E+00
     240   0.00000E+00
     241   0.00000E+00
     242   0.00000E+00
     243   0.00000E+00
     244   0.00000E+00
     245   0.00000E+00
     246   0.00000E+00
     247   0.00000E+00
     248   0.00000E+00
     249   0.00000E+00
     250   0.00000E+00
     251   0.00000E+00
     252   0.00000E+00
     253   0.00000E+00
     254   0.00000E+00
     255   0.00000E+00
     256   0.00000E+00
     257   0.00000E+00
     258   0.00000E+00
     259   0.00000E+00
     260   0.00000E+00
     261   0.00000E+00
     262   0.00000E+00
     263   0.00000E+00
     264   0.00000E+00
     265   0.00000E+00
     266   0.00000E+00
     267   0.00000E+00
     268   0.00000E+00
     269   0.00000E+00
     270   0.00000E+00
     271   0.00000E+00
     272   0.00000E+00
     273   0.00000E+00
     274   0.00000E+00
     275   0.00000E+00
     276   0.00000E+00
     277   0.00000E+00
     278   0.00000E+00
     279   0.00000E+00
     280   0.00000E+00
     281   0.00000E+00
     282   0.00000E+00
     283   0.00000E+00
     284   0.00000E+00
     285   0.00000E+00
     286   0.00000E+00
     287   0.00000E+00
     288   0.00000E+00
     289   0.00000E+00
     290   0.00000E+00
     291   0.00000E+00
     292   0.00000E+00
     293   0.00000E+00
     294   0.00000E+00
     295   0.00000E+00
     296   0.00000E+00
     297   0.00000E+00
     298   0.00000E+00
     299   0.00000E+00
     300   0.00000E+00
  ------------ 
  k    averhoc
           1  1.228705710621548E-010
           2  1.292438060314001E-010
           3  1.490198084880698E-010
           4  1.842299158242716E-010
           5  2.384974396393579E-010
           6  3.173644024565432E-010
           7  4.291188234833720E-010
           8  5.853792075948833E-010
           9  8.021602411229579E-010
          10  1.101610763471709E-009
          11  1.515306919226680E-009
          12  2.085822619884080E-009
          13  2.871244760770008E-009
          14  3.954497569908827E-009
          15  5.446459805749323E-009
          16  7.500492610327288E-009
          17  1.033214553369251E-008
          18  1.422839083052678E-008
          19  1.960004650108114E-008
          20  2.699193605941367E-008
          21  3.718071161170207E-008
          22  5.120245863020737E-008
          23  7.051625508315662E-008
          24  9.712251917771718E-008
          25  1.337491891305367E-007
          26  1.841808864509660E-007
          27  2.536399084208641E-007
          28  3.492808619833999E-007
          29  4.809456029805374E-007
          30  6.621975978839833E-007
          31  9.117357937036619E-007
          32  1.255222071773956E-006
          33  1.727940746118672E-006
          34  2.378701486132960E-006
          35  3.274093715233518E-006
          36  4.506003946687520E-006
          37  6.200297059804932E-006
          38  8.531501772624642E-006
          39  1.173626169090889E-005
          40  1.614272671587321E-005
          41  2.219493081115868E-005
          42  3.050981309393021E-005
          43  4.192532518785549E-005
          44  5.757964304643593E-005
          45  7.903621548286279E-005
          46  1.083979185336471E-004
          47  1.485283734119438E-004
          48  2.032913518517173E-004
          49  2.778130679244127E-004
          50  3.789411930484297E-004
          51  5.156095705323635E-004
          52  6.987477821312657E-004
          53  9.315987426391510E-004
          54  1.210095783378775E-003
          55  1.529080538074769E-003
          56  1.882868853126129E-003
          57  2.264991062235010E-003
          58  2.668573278010240E-003
          59  3.086230815485296E-003
          60  3.510403450781421E-003
          61  3.933429680648104E-003
          62  4.347530649346074E-003
          63  4.745341170095901E-003
          64  5.119570341640311E-003
          65  5.463404059426058E-003
          66  5.770596077780083E-003
          67  6.035637994409098E-003
          68  6.253689335932283E-003
          69  6.420799451005450E-003
          70  6.533859913532475E-003
          71  6.590931043891215E-003
          72  6.590931043891215E-003
          73  6.533859913532475E-003
          74  6.420799451005450E-003
          75  6.253689335932283E-003
          76  6.035637994409098E-003
          77  5.770596077780083E-003
          78  5.463404059426058E-003
          79  5.119570341640311E-003
          80  4.745341170095901E-003
          81  4.347530649346074E-003
          82  3.933429680648106E-003
          83  3.510403450781421E-003
          84  3.086230815485296E-003
          85  2.668573278010235E-003
          86  2.264991062235007E-003
          87  1.882868853126130E-003
          88  1.529080538074769E-003
          89  1.210095783378775E-003
          90  9.315987426391501E-004
          91  6.987477821312683E-004
          92  5.156095705323648E-004
          93  3.789411930484297E-004
          94  2.778130679244127E-004
          95  2.032913518517169E-004
          96  1.485283734119442E-004
          97  1.083979185336474E-004
          98  7.903621548286279E-005
          99  5.757964304643593E-005
         100  4.192532518785541E-005
         101  3.050981309393027E-005
         102  2.219493081115869E-005
         103  1.614272671587321E-005
         104  1.173626169090888E-005
         105  8.531501772624608E-006
         106  6.200297059804951E-006
         107  4.506003946687526E-006
         108  3.274093715233518E-006
         109  2.378701486132955E-006
         110  1.727940746118667E-006
         111  1.255222071773960E-006
         112  9.117357937036619E-007
         113  6.621975978839833E-007
         114  4.809456029805374E-007
         115  3.492808619833990E-007
         116  2.536399084208641E-007
         117  1.841808864509660E-007
         118  1.337491891305367E-007
         119  9.712251917771718E-008
         120  7.051625508315630E-008
         121  5.120245863020737E-008
         122  3.718071161170207E-008
         123  2.699193605941367E-008
         124  1.960004650108114E-008
         125  1.422839083052682E-008
         126  1.033214553369251E-008
         127  7.500492610327288E-009
         128  5.446459805749323E-009
         129  3.954497569908818E-009
         130  2.871244760770011E-009
         131  2.085822619884080E-009
         132  1.515306919226680E-009
         133  1.101610763471709E-009
         134  8.021602411229560E-010
         135  5.853792075948842E-010
         136  4.291188234833720E-010
         137  3.173644024565432E-010
         138  2.384974396393579E-010
         139  1.842299158242712E-010
         140  1.490198084880699E-010
         141  1.292438060314001E-010
  ------------ 
  k    rhog_core(k)
       1   0.11478E-02   0.00000E+00
       2  -0.10543E-02  -0.12610E-19
       3  -0.10543E-02  -0.15367E-19
       4  -0.10543E-02  -0.76769E-20
       5  -0.10543E-02  -0.20271E-20
       6  -0.10543E-02  -0.69339E-20
       7  -0.10543E-02  -0.60372E-20
       8   0.96788E-03   0.31480E-19
       9   0.96788E-03   0.45868E-19
      10   0.96788E-03   0.19352E-19
      11   0.96788E-03   0.16914E-19
      12   0.96788E-03   0.49158E-19
      13   0.96788E-03   0.16229E-19
      14   0.96788E-03   0.26054E-19
      15   0.96788E-03   0.13749E-19
      16   0.96788E-03   0.23223E-19
      17   0.96788E-03   0.23243E-19
      18   0.96788E-03   0.17154E-19
      19   0.96788E-03   0.10075E-19
      20  -0.88800E-03  -0.16879E-19
      21  -0.88800E-03  -0.34406E-19
      22  -0.88800E-03  -0.11141E-19
      23  -0.88800E-03  -0.16719E-19
      24  -0.88800E-03  -0.15680E-19
      25  -0.88800E-03  -0.22944E-19
      26  -0.88800E-03  -0.89269E-20
      27  -0.88800E-03  -0.15318E-19
      28   0.81417E-03   0.28947E-19
      29   0.81417E-03   0.33432E-19
      30   0.81417E-03   0.44510E-19
      31   0.81417E-03  -0.94036E-20
      32   0.81417E-03  -0.45233E-20
      33   0.81417E-03  -0.43399E-20
      34  -0.74592E-03  -0.39112E-19
      35  -0.74592E-03  -0.33732E-19
      36  -0.74592E-03  -0.26112E-19
      37  -0.74592E-03  -0.30072E-19
      38  -0.74592E-03  -0.37547E-19
      39  -0.74592E-03  -0.46685E-19
      40  -0.74592E-03   0.12889E-20
      41  -0.74592E-03  -0.39917E-20
      42  -0.74592E-03  -0.52118E-19
      43  -0.74592E-03  -0.29474E-19
      44  -0.74592E-03  -0.43911E-19
      45  -0.74592E-03  -0.73696E-20
      46  -0.74592E-03  -0.23234E-19
      47  -0.74592E-03  -0.14129E-20
      48  -0.74592E-03  -0.45503E-20
      49  -0.74592E-03   0.47317E-20
      50  -0.74592E-03  -0.28825E-19
      51  -0.74592E-03  -0.36885E-19
      52  -0.74592E-03   0.40927E-20
      53  -0.74592E-03   0.61023E-21
      54  -0.74592E-03  -0.75541E-20
      55  -0.74592E-03  -0.55375E-20
      56  -0.74592E-03   0.35791E-20
      57  -0.74592E-03   0.23819E-21
      58   0.68284E-03   0.35832E-19
      59   0.68284E-03   0.35422E-19
      60   0.68284E-03   0.29207E-19
      61   0.68284E-03   0.27593E-19
      62   0.68284E-03   0.36767E-19
      63   0.68284E-03   0.38599E-19
      64   0.68284E-03   0.75890E-19
      65   0.68284E-03   0.11596E-19
      66   0.68284E-03   0.49999E-19
      67   0.68284E-03   0.20033E-20
      68   0.68284E-03  -0.12788E-19
      69   0.68284E-03   0.54464E-20
      70   0.68284E-03  -0.86441E-20
      71   0.68284E-03   0.32510E-19
      72   0.68284E-03   0.74525E-19
      73   0.68284E-03   0.75858E-20
      74   0.68284E-03   0.48659E-19
      75   0.68284E-03  -0.77588E-20
      76   0.68284E-03  -0.15328E-19
      77   0.68284E-03   0.30332E-20
      78   0.68284E-03   0.43698E-20
      79   0.68284E-03   0.75936E-20
      80   0.68284E-03  -0.18230E-19
      81   0.68284E-03   0.16123E-20
      82   0.57069E-03   0.44290E-19
      83   0.57069E-03   0.42023E-19
      84   0.57069E-03   0.14187E-19
      85   0.57069E-03   0.14688E-19
      86   0.57069E-03   0.38408E-19
      87   0.57069E-03   0.21893E-19
      88   0.57069E-03   0.20451E-19
      89   0.57069E-03  -0.90554E-20
      90   0.57069E-03   0.18680E-19
      91   0.57069E-03   0.49096E-20
      92   0.57069E-03  -0.36789E-20
      93   0.57069E-03  -0.87812E-20
      94  -0.52092E-03   0.21317E-19
      95  -0.52092E-03  -0.45356E-19
      96  -0.52092E-03  -0.42228E-19
      97  -0.52092E-03  -0.65127E-19
      98  -0.52092E-03  -0.10104E-19
      99  -0.52092E-03  -0.57887E-19
     100  -0.52092E-03  -0.13907E-20
 1492913  -0.23511E-08   0.11220E-20
 1492914  -0.23511E-08  -0.85411E-21
 1492915  -0.23511E-08  -0.27063E-21
 1492916  -0.23511E-08   0.35757E-21
 1492917  -0.23511E-08  -0.73066E-21
 1492918  -0.22698E-08   0.15118E-20
 1492919  -0.22698E-08   0.28367E-20
 1492920  -0.22698E-08   0.13503E-20
 1492921  -0.22698E-08   0.13400E-20
 1492922  -0.22698E-08   0.24983E-20
 1492923  -0.22698E-08   0.23230E-20
 1492924  -0.22698E-08   0.18913E-20
 1492925  -0.22698E-08   0.30318E-20
 1492926  -0.25046E-08  -0.25575E-20
 1492927  -0.25046E-08  -0.16524E-20
 1492928  -0.25046E-08  -0.27289E-20
 1492929  -0.25046E-08  -0.32987E-20
 1492930  -0.25046E-08  -0.21258E-20
 1492931  -0.25046E-08  -0.27964E-20
 1492932  -0.25046E-08  -0.33015E-20
 1492933  -0.25046E-08  -0.26688E-20
 1492934  -0.14818E-08  -0.11073E-20
 1492935  -0.14818E-08   0.60409E-21
 1492936  -0.14818E-08  -0.54433E-21
 1492937  -0.14818E-08   0.90481E-21
 1492938  -0.14818E-08   0.63900E-22
 1492939  -0.14818E-08   0.14913E-20
 1492940  -0.14818E-08  -0.35514E-21
 1492941  -0.14818E-08   0.11998E-20
 1492942  -0.14818E-08  -0.82105E-21
 1492943  -0.14818E-08   0.64929E-21
 1492944  -0.22698E-08   0.21032E-22
 1492945  -0.22698E-08   0.10947E-20
 1492946  -0.23511E-08   0.70459E-21
 1492947  -0.23511E-08  -0.42021E-21
 1492948  -0.23511E-08   0.90629E-21
 1492949  -0.23511E-08   0.66624E-21
 1492950  -0.22698E-08   0.34761E-21
 1492951  -0.22698E-08  -0.13956E-21
 1492952  -0.14818E-08  -0.16690E-21
 1492953  -0.14818E-08  -0.23158E-21
 1492954  -0.14818E-08   0.68853E-21
 1492955  -0.14818E-08   0.68053E-21
 1492956  -0.22698E-08   0.12828E-20
 1492957  -0.22698E-08   0.76247E-21
 1492958  -0.23511E-08  -0.10260E-21
 1492959  -0.23511E-08  -0.54447E-21
 1492960  -0.23511E-08   0.87869E-21
 1492961  -0.23511E-08  -0.51851E-21
 1492962  -0.22698E-08   0.22989E-21
 1492963  -0.22698E-08   0.13022E-20
 1492964  -0.14818E-08  -0.80014E-21
 1492965  -0.14818E-08   0.77167E-21
 1492966  -0.27699E-08   0.12240E-20
 1492967  -0.27699E-08   0.75529E-21
 1492968  -0.27699E-08   0.10877E-20
 1492969  -0.27699E-08  -0.65528E-21
 1492970  -0.27699E-08   0.60634E-21
 1492971  -0.27699E-08  -0.97212E-21
 1492972  -0.27699E-08  -0.38249E-21
 1492973  -0.27699E-08  -0.70272E-21
 1492974  -0.32632E-08  -0.82170E-21
 1492975  -0.32632E-08   0.18562E-21
 1492976  -0.31047E-08   0.22081E-21
 1492977  -0.31047E-08  -0.80206E-21
 1492978  -0.31047E-08  -0.71007E-22
 1492979  -0.31047E-08   0.54406E-21
 1492980  -0.32632E-08  -0.61924E-21
 1492981  -0.32632E-08  -0.11224E-20
 1492982  -0.32632E-08   0.27431E-21
 1492983  -0.32632E-08  -0.25425E-21
 1492984  -0.31047E-08  -0.14382E-20
 1492985  -0.31047E-08  -0.68418E-21
 1492986  -0.31047E-08   0.59739E-21
 1492987  -0.31047E-08  -0.29738E-21
 1492988  -0.32632E-08  -0.72907E-21
 1492989  -0.32632E-08   0.23125E-21
 1492990  -0.35372E-08   0.98399E-21
 1492991  -0.35372E-08   0.68783E-21
 1492992  -0.35372E-08   0.87167E-21
 1492993  -0.35372E-08   0.17744E-20
 1492994  -0.35372E-08   0.61815E-21
 1492995  -0.35372E-08   0.14087E-20
 1492996  -0.35372E-08   0.14573E-20
 1492997  -0.35372E-08   0.10255E-20
 1492998  -0.39490E-08   0.21972E-21
 1492999  -0.39490E-08  -0.24754E-21
 1493000  -0.32701E-08   0.19506E-22
 1493001  -0.32701E-08   0.97226E-22
 1493002  -0.32701E-08  -0.32177E-22
 1493003  -0.32701E-08  -0.35287E-21
 1493004  -0.39490E-08   0.48860E-21
 1493005  -0.39490E-08   0.50843E-21
 1493006  -0.39490E-08  -0.10497E-22
 1493007  -0.39490E-08  -0.98615E-22
 1493008  -0.32701E-08  -0.17698E-21
 1493009  -0.32701E-08  -0.54947E-21
 1493010  -0.32701E-08  -0.73070E-21
 1493011  -0.32701E-08  -0.69646E-21
 1493012  -0.39490E-08   0.29530E-21
 1493013  -0.39490E-08  -0.29794E-21
  ------------ 

     Initial potential from superposition of free atoms
     Check: negative starting charge=(component1):   -0.000166
     Check: negative starting charge=(component2):   -0.000166

     starting charge    9.99575, renormalised to   10.00000

     negative rho (up, down):  1.658E-04 1.658E-04
     Starting wfc are   16 randomized atomic wfcs +    9 random wfc

     total cpu time spent up to now is      146.1 secs

     per-process dynamical memory:  1420.3 Mb

     Self-consistent Calculation

     iteration #  1     ecut=   200.00 Ry     beta=0.70
     Davidson diagonalization with overlap
     ethr =  1.00E-02,  avg # of iterations = 10.4

     negative rho (up, down):  3.446E-05 5.067E-05

     total cpu time spent up to now is      696.6 secs

     total energy              =     -73.77075313 Ry
     Harris-Foulkes estimate   =     -72.89089291 Ry
     estimated scf accuracy    <       2.60673236 Ry

     total magnetization       =     8.00 Bohr mag/cell
     absolute magnetization    =     8.00 Bohr mag/cell

     iteration #  2     ecut=   200.00 Ry     beta=0.70
     Davidson diagonalization with overlap
     ethr =  1.00E-02,  avg # of iterations =  1.5

     total cpu time spent up to now is      957.0 secs

     total energy              =     -74.39317698 Ry
     Harris-Foulkes estimate   =     -74.07846235 Ry
     estimated scf accuracy    <       0.51108291 Ry

     total magnetization       =     8.00 Bohr mag/cell
     absolute magnetization    =     8.00 Bohr mag/cell

     iteration #  3     ecut=   200.00 Ry     beta=0.70
     Davidson diagonalization with overlap
     ethr =  5.11E-03,  avg # of iterations =  1.0

     total cpu time spent up to now is     1211.9 secs

     total energy              =     -74.44343331 Ry
     Harris-Foulkes estimate   =     -74.40590252 Ry
     estimated scf accuracy    <       0.04958581 Ry

     total magnetization       =     8.00 Bohr mag/cell
     absolute magnetization    =     8.01 Bohr mag/cell

     iteration #  4     ecut=   200.00 Ry     beta=0.70
     Davidson diagonalization with overlap
     ethr =  4.96E-04,  avg # of iterations =  7.2

     negative rho (up, down):  1.564E-05 6.806E-06

     total cpu time spent up to now is     1858.8 secs

     total energy              =     -74.44584976 Ry
     Harris-Foulkes estimate   =     -74.44662577 Ry
     estimated scf accuracy    <       0.00230849 Ry

     total magnetization       =     8.00 Bohr mag/cell
     absolute magnetization    =     8.01 Bohr mag/cell

     iteration #  5     ecut=   200.00 Ry     beta=0.70
     Davidson diagonalization with overlap
     ethr =  2.31E-05,  avg # of iterations =  5.6

     negative rho (up, down):  3.867E-05 2.252E-05

     total cpu time spent up to now is     2562.6 secs

     total energy              =     -74.44584448 Ry
     Harris-Foulkes estimate   =     -74.44608170 Ry
     estimated scf accuracy    <       0.00038529 Ry

     total magnetization       =     8.00 Bohr mag/cell
     absolute magnetization    =     8.01 Bohr mag/cell

     iteration #  6     ecut=   200.00 Ry     beta=0.70
     Davidson diagonalization with overlap
     ethr =  3.85E-06,  avg # of iterations =  6.6

     negative rho (up, down):  1.942E-05 1.148E-05

     total cpu time spent up to now is     3396.1 secs

     total energy              =     -74.44593511 Ry
     Harris-Foulkes estimate   =     -74.44592067 Ry
     estimated scf accuracy    <       0.00001909 Ry

     total magnetization       =     8.00 Bohr mag/cell
     absolute magnetization    =     8.01 Bohr mag/cell

     iteration #  7     ecut=   200.00 Ry     beta=0.70
     Davidson diagonalization with overlap
     c_bands:  1 eigenvalues not converged
     ethr =  1.91E-07,  avg # of iterations =  8.9

     negative rho (up, down):  4.753E-08 0.000E+00

     total cpu time spent up to now is     4030.4 secs

     total energy              =     -74.44594140 Ry
     Harris-Foulkes estimate   =     -74.44593661 Ry
     estimated scf accuracy    <       0.00000706 Ry

     total magnetization       =     8.00 Bohr mag/cell
     absolute magnetization    =     8.02 Bohr mag/cell

     iteration #  8     ecut=   200.00 Ry     beta=0.70
     Davidson diagonalization with overlap
     ethr =  7.06E-08,  avg # of iterations =  8.5
 
     Magnetic moment per site:
     atom:    1    charge:    7.2443    magn:    7.1678    constr:    0.0000

     total cpu time spent up to now is     4436.4 secs

     End of self-consistent calculation

 ------ SPIN UP ------------


          k = 0.0000 0.0000 0.0000 (186623 PWs)   bands (ev):

   -11.7674 -11.7634 -11.7634 -11.7634 -11.7632 -11.7632 -11.7632  -3.7418
    -2.4942  -2.4942  -2.3033  -2.3033  -2.3033  -0.4775  -0.4775  -0.4775
     0.2705   1.4093   1.4093   2.6605   2.6605   2.6605   3.1024   3.2152
     3.2152

          k = 0.0000 0.0000-0.1429 (186630 PWs)   bands (ev):

   -11.7667 -11.7653 -11.7653 -11.7639 -11.7636 -11.7636 -11.7603  -3.6933
    -2.4922  -2.4559  -2.3152  -2.3152  -2.3023  -1.0936  -0.3998  -0.3998
     0.8214   1.4240   1.7001   2.1065   2.1065   2.1186   3.0149   3.1367
     3.1367

          k = 0.0000-0.1429-0.1429 (186716 PWs)   bands (ev):

   -11.7683 -11.7679 -11.7660 -11.7660 -11.7655 -11.7614 -11.7614  -3.6467
    -2.4723  -2.4377  -2.3317  -2.3138  -2.3138  -0.9750  -0.9750  -0.3288
     0.8040   1.4374   1.9675   1.9675   2.4241   2.4241   2.7834   3.0055
     3.1226

          k =-0.1429-0.1429-0.1429 (186352 PWs)   bands (ev):

   -11.7650 -11.7613 -11.7613 -11.7613 -11.7585 -11.7585 -11.7585  -3.6015
    -2.4370  -2.4370  -2.3294  -2.3294  -2.3294  -0.8710  -0.8710  -0.8710
     1.1519   1.1519   1.1519   1.5009   3.0870   3.0870   3.0870   3.6657
     4.4646

 ------ SPIN DOWN ----------


          k = 0.0000 0.0000 0.0000 (186623 PWs)   bands (ev):

    -3.3098  -0.9987  -0.9987  -0.9679  -0.9679  -0.9679  -0.2603  -0.2603
    -0.2603   0.3889   1.7454   1.7454   2.7385   2.7385   2.7385   3.1436
     3.1436   3.1436   3.2032   3.6852   3.6852   3.6852   3.7632   3.7632
     3.8431

          k = 0.0000 0.0000-0.1429 (186630 PWs)   bands (ev):

    -3.2452  -1.0054  -1.0054  -0.9870  -0.9646  -0.9504  -0.8811  -0.1651
    -0.1651   1.0152   1.5217   2.1046   2.1073   2.3044   2.3044   3.0515
     3.1490   3.1490   3.6296   3.7307   3.9762   3.9762   4.0447   4.0566
     4.0962

          k = 0.0000-0.1429-0.1429 (186716 PWs)   bands (ev):

    -3.1836  -1.0706  -0.9999  -0.9999  -0.9277  -0.8142  -0.8104  -0.8104
    -0.0782   0.9731   1.7332   2.0442   2.0442   2.6704   2.6704   2.7464
     3.0516   3.1676   3.1676   3.8694   3.8694   3.9452   4.0137   4.0146
     4.1692

          k =-0.1429-0.1429-0.1429 (186352 PWs)   bands (ev):

    -3.1242  -1.0576  -1.0576  -1.0576  -0.8117  -0.8117  -0.6871  -0.6871
    -0.6871   1.3490   1.3490   1.3490   1.4899   3.2342   3.2342   3.2342
     3.8869   3.8869   3.8869   3.9249   3.9250   3.9726   3.9726   3.9726
     4.8060

     highest occupied, lowest unoccupied level (ev):    -2.4370   -2.4942

!    total energy              =     -74.44594221 Ry
     Harris-Foulkes estimate   =     -74.44594186 Ry
     estimated scf accuracy    <       0.00000049 Ry

     The total energy is the sum of the following terms:

     one-electron contribution =     -87.86482381 Ry
     hartree contribution      =      50.40908208 Ry
     xc contribution           =     -18.97561331 Ry
     ewald contribution        =     -18.01458717 Ry

     total magnetization       =     8.00 Bohr mag/cell
     absolute magnetization    =     8.02 Bohr mag/cell

     convergence has been achieved in   8 iterations

     Forces acting on atoms (Ry/au):

     atom    1 type  1   force =     0.00000000    0.00000000    0.00000000

     Total force =     0.000000     Total SCF correction =     0.000000


     entering subroutine stress ...

          total   stress  (Ry/bohr**3)                   (kbar)     P=  -46.05
  -0.00031304   0.00000000   0.00000000        -46.05      0.00      0.00
   0.00000000  -0.00031304   0.00000000          0.00    -46.05      0.00
   0.00000000   0.00000000  -0.00031304          0.00      0.00    -46.05


     Writing output data file Gd.save
 
     init_run     :    101.95s CPU    145.18s WALL (       1 calls)
     electrons    :   4102.50s CPU   4290.77s WALL (       1 calls)
     forces       :      2.86s CPU      3.26s WALL (       1 calls)
     stress       :     17.61s CPU     24.07s WALL (       1 calls)

     Called by init_run:
     wfcinit      :     80.23s CPU     81.77s WALL (       1 calls)
     potinit      :      1.43s CPU      1.63s WALL (       1 calls)

     Called by electrons:
     c_bands      :   2132.44s CPU   2154.97s WALL (       8 calls)
     sum_band     :    338.35s CPU    498.31s WALL (       8 calls)
     v_of_rho     :      5.00s CPU      5.36s WALL (       9 calls)
     mix_rho      :   1626.59s CPU   1631.14s WALL (       8 calls)

     Called by c_bands:
     init_us_2    :      6.30s CPU     10.38s WALL (     152 calls)
     cegterg      :   2119.37s CPU   2139.67s WALL (      64 calls)

     Called by sum_band:

     Called by *egterg:
     h_psi        :   2097.26s CPU   2097.82s WALL (     470 calls)
     g_psi        :      4.12s CPU      4.14s WALL (     398 calls)
     cdiaghg      :      0.52s CPU      0.67s WALL (     462 calls)

     Called by h_psi:
     h_psi:pot    :   2092.42s CPU   2092.73s WALL (     470 calls)
     h_psi:calbec :      6.47s CPU      6.49s WALL (     470 calls)
     vloc_psi     :   2077.39s CPU   2077.64s WALL (     470 calls)
     add_vuspsi   :      8.56s CPU      8.60s WALL (     470 calls)

     General routines
     calbec       :      7.49s CPU      7.50s WALL (     510 calls)
     fft          :     12.57s CPU     12.69s WALL (      69 calls)
     ffts         :   1153.63s CPU   1153.81s WALL (    6329 calls)
     fftw         :   2299.22s CPU   2299.38s WALL (   12624 calls)
     davcio       :      0.01s CPU      0.91s WALL (       8 calls)
 
 
     PWSCF        :     1h10m CPU        1h14m WALL

 
   This run was terminated on:  12:38:42  27Jul2018            

=------------------------------------------------------------------------------=
   JOB DONE.
=------------------------------------------------------------------------------=
