
     Program PWSCF v.6.0 (svn rev. 13079) starts on 26Jul2018 at 19:31:36 

     This program is part of the open-source Quantum ESPRESSO suite
     for quantum simulation of materials; please cite
         "P. Giannozzi et al., J. Phys.:Condens. Matter 21 395502 (2009);
          URL http://www.quantum-espresso.org", 
     in publications or presentations arising from this work. More details at
     http://www.quantum-espresso.org/quote

     Serial version
     Waiting for input...
     Reading input from standard input
     Message from routine read_cards :
     DEPRECATED: no units specified in CELL_PARAMETERS card

     Current dimensions of program PWSCF are:
     Max number of different atomic species (ntypx) = 10
     Max number of k-points (npk) =  40000
     Max angular momentum in pseudopotentials (lmaxx) =  3
 
     G-vector sticks info
     --------------------
     sticks:   dense  smooth     PW     G-vecs:    dense   smooth      PW
     Sum       11873   11873   3125               970115   970115  131827
 


     bravais-lattice index     =            0
     lattice parameter (alat)  =       4.5000  a.u.
     unit-cell volume          =    3906.9844 (a.u.)^3
     number of atoms/cell      =            1
     number of atomic types    =            1
     number of electrons       =         2.00
     number of Kohn-Sham states=           25
     kinetic-energy cutoff     =     150.0000  Ry
     charge density cutoff     =     600.0000  Ry
     convergence threshold     =      5.0E-06
     mixing beta               =       0.7000
     number of iterations used =            4  local-TF  mixing
     Exchange-correlation      = PZ ( 1  1  0  0 0 0)

     celldm(1)=   4.500000  celldm(2)=   0.000000  celldm(3)=   0.000000
     celldm(4)=   0.000000  celldm(5)=   0.000000  celldm(6)=   0.000000

     crystal axes: (cart. coord. in units of alat)
               a(1) = (   3.500000   0.000000   0.000000 )  
               a(2) = (   0.000000   3.500000   0.000000 )  
               a(3) = (   0.000000   0.000000   3.500000 )  

     reciprocal axes: (cart. coord. in units 2 pi/alat)
               b(1) = (  0.285714  0.000000  0.000000 )  
               b(2) = (  0.000000  0.285714  0.000000 )  
               b(3) = (  0.000000  0.000000  0.285714 )  


     PseudoPot. # 1 for Mg read from file:
     ./Mg.UPF
     MD5 check sum: 2a8c454b56120f70d7ff66c460ef895f
     Pseudo is Norm-conserving + core correction, Zval =  2.0
     Generated using "atomic" code by A. Dal Corso  v.6.0 svn rev. 13079
     Using radial grid of 1129 points,  2 beta functions with: 
                l(1) =   0
                l(2) =   1

     atomic species   valence    mass     pseudopotential
        Mg             2.00    12.00000     Mg( 1.00)

     48 Sym. Ops., with inversion, found



   Cartesian axes

     site n.     atom                  positions (alat units)
         1           Mg  tau(   1) = (   1.7500000   1.7500000   1.7500000  )

     number of k points=     4  gaussian smearing, width (Ry)=  0.0030
                       cart. coord. in units 2pi/alat
        k(    1) = (   0.0000000   0.0000000   0.0000000), wk =   0.2500000
        k(    2) = (   0.0000000   0.0000000  -0.1428571), wk =   0.7500000
        k(    3) = (   0.0000000  -0.1428571  -0.1428571), wk =   0.7500000
        k(    4) = (  -0.1428571  -0.1428571  -0.1428571), wk =   0.2500000

     Dense  grid:   970115 G-vectors     FFT dimensions: ( 123, 123, 123)

     Estimated max dynamical RAM per process >    1050.38Mb
dfftp%nnr =1860867
    123    123    123    123    123    123
SIZE(dfftp%isind) =   15129
bg(1:3,1):   0.2857  0.0000  0.0000
bg(1:3,2):   0.0000  0.2857  0.0000
bg(1:3,3):   0.0000  0.0000  0.2857
at(1:3,1):   3.5000  0.0000  0.0000
at(1:3,2):   0.0000  3.5000  0.0000
at(1:3,3):   0.0000  0.0000  3.5000
nt =     1 na =    1
tau(:,na) =    1.75000   1.75000   1.75000
  k    rho_core(k)
       1   0.00000E+00
       2   0.00000E+00
       3   0.00000E+00
       4   0.00000E+00
       5   0.00000E+00
       6   0.00000E+00
       7   0.00000E+00
       8   0.00000E+00
       9   0.00000E+00
      10   0.00000E+00
      11   0.00000E+00
      12   0.00000E+00
      13   0.00000E+00
      14   0.00000E+00
      15   0.00000E+00
      16   0.00000E+00
      17   0.00000E+00
      18   0.00000E+00
      19   0.00000E+00
      20   0.00000E+00
      21   0.00000E+00
      22   0.00000E+00
      23   0.00000E+00
      24   0.00000E+00
      25   0.00000E+00
      26   0.00000E+00
      27   0.00000E+00
      28   0.00000E+00
      29   0.00000E+00
      30   0.00000E+00
      31   0.00000E+00
      32   0.00000E+00
      33   0.00000E+00
      34   0.00000E+00
      35   0.00000E+00
      36   0.00000E+00
      37   0.00000E+00
      38   0.00000E+00
      39   0.00000E+00
      40   0.00000E+00
      41   0.00000E+00
      42   0.00000E+00
      43   0.00000E+00
      44   0.00000E+00
      45   0.00000E+00
      46   0.00000E+00
      47   0.00000E+00
      48   0.00000E+00
      49   0.00000E+00
      50   0.00000E+00
      51   0.00000E+00
      52   0.00000E+00
      53   0.00000E+00
      54   0.00000E+00
      55   0.00000E+00
      56   0.00000E+00
      57   0.00000E+00
      58   0.00000E+00
      59   0.00000E+00
      60   0.00000E+00
      61   0.00000E+00
      62   0.00000E+00
      63   0.00000E+00
      64   0.00000E+00
      65   0.00000E+00
      66   0.00000E+00
      67   0.00000E+00
      68   0.00000E+00
      69   0.00000E+00
      70   0.00000E+00
      71   0.00000E+00
      72   0.00000E+00
      73   0.00000E+00
      74   0.00000E+00
      75   0.00000E+00
      76   0.00000E+00
      77   0.00000E+00
      78   0.00000E+00
      79   0.00000E+00
      80   0.00000E+00
      81   0.00000E+00
      82   0.00000E+00
      83   0.00000E+00
      84   0.00000E+00
      85   0.00000E+00
      86   0.00000E+00
      87   0.00000E+00
      88   0.00000E+00
      89   0.00000E+00
      90   0.00000E+00
      91   0.00000E+00
      92   0.00000E+00
      93   0.00000E+00
      94   0.00000E+00
      95   0.00000E+00
      96   0.00000E+00
      97   0.00000E+00
      98   0.00000E+00
      99   0.00000E+00
     100   0.00000E+00
     101   0.00000E+00
     102   0.00000E+00
     103   0.00000E+00
     104   0.00000E+00
     105   0.00000E+00
     106   0.00000E+00
     107   0.00000E+00
     108   0.00000E+00
     109   0.00000E+00
     110   0.00000E+00
     111   0.00000E+00
     112   0.00000E+00
     113   0.00000E+00
     114   0.00000E+00
     115   0.00000E+00
     116   0.00000E+00
     117   0.00000E+00
     118   0.00000E+00
     119   0.00000E+00
     120   0.00000E+00
     121   0.00000E+00
     122   0.00000E+00
     123   0.00000E+00
     124   0.00000E+00
     125   0.00000E+00
     126   0.00000E+00
     127   0.00000E+00
     128   0.00000E+00
     129   0.00000E+00
     130   0.00000E+00
     131   0.00000E+00
     132   0.00000E+00
     133   0.00000E+00
     134   0.00000E+00
     135   0.00000E+00
     136   0.00000E+00
     137   0.00000E+00
     138   0.00000E+00
     139   0.00000E+00
     140   0.00000E+00
     141   0.00000E+00
     142   0.00000E+00
     143   0.00000E+00
     144   0.00000E+00
     145   0.00000E+00
     146   0.00000E+00
     147   0.00000E+00
     148   0.00000E+00
     149   0.00000E+00
     150   0.00000E+00
     151   0.00000E+00
     152   0.00000E+00
     153   0.00000E+00
     154   0.00000E+00
     155   0.00000E+00
     156   0.00000E+00
     157   0.00000E+00
     158   0.00000E+00
     159   0.00000E+00
     160   0.00000E+00
     161   0.00000E+00
     162   0.00000E+00
     163   0.00000E+00
     164   0.00000E+00
     165   0.00000E+00
     166   0.00000E+00
     167   0.00000E+00
     168   0.00000E+00
     169   0.00000E+00
     170   0.00000E+00
     171   0.00000E+00
     172   0.00000E+00
     173   0.00000E+00
     174   0.00000E+00
     175   0.00000E+00
     176   0.00000E+00
     177   0.00000E+00
     178   0.00000E+00
     179   0.00000E+00
     180   0.00000E+00
     181   0.00000E+00
     182   0.00000E+00
     183   0.00000E+00
     184   0.00000E+00
     185   0.00000E+00
     186   0.00000E+00
     187   0.00000E+00
     188   0.00000E+00
     189   0.00000E+00
     190   0.00000E+00
     191   0.00000E+00
     192   0.00000E+00
     193   0.00000E+00
     194   0.00000E+00
     195   0.00000E+00
     196   0.00000E+00
     197   0.00000E+00
     198   0.00000E+00
     199   0.00000E+00
     200   0.00000E+00
     201   0.00000E+00
     202   0.00000E+00
     203   0.00000E+00
     204   0.00000E+00
     205   0.00000E+00
     206   0.00000E+00
     207   0.00000E+00
     208   0.00000E+00
     209   0.00000E+00
     210   0.00000E+00
     211   0.00000E+00
     212   0.00000E+00
     213   0.00000E+00
     214   0.00000E+00
     215   0.00000E+00
     216   0.00000E+00
     217   0.00000E+00
     218   0.00000E+00
     219   0.00000E+00
     220   0.00000E+00
     221   0.00000E+00
     222   0.00000E+00
     223   0.00000E+00
     224   0.00000E+00
     225   0.00000E+00
     226   0.00000E+00
     227   0.00000E+00
     228   0.00000E+00
     229   0.00000E+00
     230   0.00000E+00
     231   0.00000E+00
     232   0.00000E+00
     233   0.00000E+00
     234   0.00000E+00
     235   0.00000E+00
     236   0.00000E+00
     237   0.00000E+00
     238   0.00000E+00
     239   0.00000E+00
     240   0.00000E+00
     241   0.00000E+00
     242   0.00000E+00
     243   0.00000E+00
     244   0.00000E+00
     245   0.00000E+00
     246   0.00000E+00
     247   0.00000E+00
     248   0.00000E+00
     249   0.00000E+00
     250   0.00000E+00
     251   0.00000E+00
     252   0.00000E+00
     253   0.00000E+00
     254   0.00000E+00
     255   0.00000E+00
     256   0.00000E+00
     257   0.00000E+00
     258   0.00000E+00
     259   0.00000E+00
     260   0.00000E+00
     261   0.00000E+00
     262   0.00000E+00
     263   0.00000E+00
     264   0.00000E+00
     265   0.00000E+00
     266   0.00000E+00
     267   0.00000E+00
     268   0.00000E+00
     269   0.00000E+00
     270   0.00000E+00
     271   0.00000E+00
     272   0.00000E+00
     273   0.00000E+00
     274   0.00000E+00
     275   0.00000E+00
     276   0.00000E+00
     277   0.00000E+00
     278   0.00000E+00
     279   0.00000E+00
     280   0.00000E+00
     281   0.00000E+00
     282   0.00000E+00
     283   0.00000E+00
     284   0.00000E+00
     285   0.00000E+00
     286   0.00000E+00
     287   0.00000E+00
     288   0.00000E+00
     289   0.00000E+00
     290   0.00000E+00
     291   0.00000E+00
     292   0.00000E+00
     293   0.00000E+00
     294   0.00000E+00
     295   0.00000E+00
     296   0.00000E+00
     297   0.00000E+00
     298   0.00000E+00
     299   0.00000E+00
     300   0.00000E+00
  ------------ 
  k    averhoc
           1  1.158610477522283E-014
           2  1.300041262067083E-014
           3  1.757665660706108E-014
           4  2.640584300738581E-014
           5  4.169411729782641E-014
           6  6.713587188611034E-014
           7  1.088819194827292E-013
           8  1.772943003451422E-013
           9  2.887271402183895E-013
          10  4.709947496653022E-013
          11  7.677350566068958E-013
          12  1.252810260526904E-012
          13  2.043225539354641E-012
          14  3.333292466362514E-012
          15  5.441003449819372E-012
          16  8.879169190425828E-012
          17  1.449101321826041E-011
          18  2.366108977542779E-011
          19  3.863972854924234E-011
          20  6.310280520296762E-011
          21  1.030648676290455E-010
          22  1.683811038981224E-010
          23  2.751372531858635E-010
          24  4.496895162343187E-010
          25  7.352193666964559E-010
          26  1.202284163577961E-009
          27  1.966390472291772E-009
          28  3.217098131671702E-009
          29  5.266447320812832E-009
          30  8.621893476242802E-009
          31  1.412566906579520E-008
          32  2.314352233638194E-008
          33  3.794728638163216E-008
          34  6.225954813798569E-008
          35  1.021856528495626E-007
          36  1.678520754115029E-007
          37  2.758687678208846E-007
          38  4.537771258046125E-007
          39  7.472054939310595E-007
          40  1.231491447176284E-006
          41  2.031999108685269E-006
          42  3.356352486209680E-006
          43  5.551503914684592E-006
          44  9.196112722797196E-006
          45  1.525593014530010E-005
          46  2.535137738494186E-005
          47  4.219432170262635E-005
          48  7.036696486661638E-005
          49  1.175507353032559E-004
          50  1.967107558336760E-004
          51  3.255713481283078E-004
          52  5.052132071330004E-004
          53  7.268993739270094E-004
          54  9.797625667151010E-004
          55  1.251433744193543E-003
          56  1.528633374190683E-003
          57  1.797954696588676E-003
          58  2.046023178994422E-003
          59  2.260894702301994E-003
          60  2.431902151794901E-003
          61  2.550732557795863E-003
          62  2.611649155176644E-003
          63  2.611649155176644E-003
          64  2.550732557795863E-003
          65  2.431902151794901E-003
          66  2.260894702301994E-003
          67  2.046023178994422E-003
          68  1.797954696588676E-003
          69  1.528633374190683E-003
          70  1.251433744193543E-003
          71  9.797625667151010E-004
          72  7.268993739270084E-004
          73  5.052132071330004E-004
          74  3.255713481283078E-004
          75  1.967107558336767E-004
          76  1.175507353032553E-004
          77  7.036696486661638E-005
          78  4.219432170262655E-005
          79  2.535137738494178E-005
          80  1.525593014530010E-005
          81  9.196112722797196E-006
          82  5.551503914684612E-006
          83  3.356352486209667E-006
          84  2.031999108685269E-006
          85  1.231491447176284E-006
          86  7.472054939310618E-007
          87  4.537771258046125E-007
          88  2.758687678208846E-007
          89  1.678520754115031E-007
          90  1.021856528495622E-007
          91  6.225954813798569E-008
          92  3.794728638163222E-008
          93  2.314352233638201E-008
          94  1.412566906579516E-008
          95  8.621893476242802E-009
          96  5.266447320812841E-009
          97  3.217098131671689E-009
          98  1.966390472291772E-009
          99  1.202284163577961E-009
         100  7.352193666964559E-010
         101  4.496895162343187E-010
         102  2.751372531858635E-010
         103  1.683811038981224E-010
         104  1.030648676290459E-010
         105  6.310280520296762E-011
         106  3.863972854924234E-011
         107  2.366108977542779E-011
         108  1.449101321826035E-011
         109  8.879169190425828E-012
         110  5.441003449819372E-012
         111  3.333292466362521E-012
         112  2.043225539354636E-012
         113  1.252810260526904E-012
         114  7.677350566068958E-013
         115  4.709947496652992E-013
         116  2.887271402183895E-013
         117  1.772943003451422E-013
         118  1.088819194827296E-013
         119  6.713587188611006E-014
         120  4.169411729782641E-014
         121  2.640584300738581E-014
         122  1.757665660706113E-014
         123  1.300041262067079E-014
  ------------ 
  k    rhog_core(k)
       1   0.31719E-03   0.00000E+00
       2  -0.30443E-03  -0.15185E-19
       3  -0.30443E-03  -0.13243E-19
       4  -0.30443E-03  -0.10191E-19
       5  -0.30443E-03  -0.17985E-19
       6  -0.30443E-03  -0.18350E-19
       7  -0.30443E-03  -0.18264E-19
       8   0.29214E-03   0.31517E-19
       9   0.29214E-03   0.29041E-19
      10   0.29214E-03   0.31705E-19
      11   0.29214E-03   0.31337E-19
      12   0.29214E-03   0.29872E-19
      13   0.29214E-03   0.29693E-19
      14   0.29214E-03   0.30094E-19
      15   0.29214E-03   0.33720E-19
      16   0.29214E-03   0.32732E-19
      17   0.29214E-03   0.36996E-19
      18   0.29214E-03   0.33055E-19
      19   0.29214E-03   0.35107E-19
      20  -0.28032E-03  -0.41805E-19
      21  -0.28032E-03  -0.48001E-19
      22  -0.28032E-03  -0.42132E-19
      23  -0.28032E-03  -0.47505E-19
      24  -0.28032E-03  -0.43866E-19
      25  -0.28032E-03  -0.48236E-19
      26  -0.28032E-03  -0.42370E-19
      27  -0.28032E-03  -0.51595E-19
      28   0.26893E-03  -0.73015E-20
      29   0.26893E-03  -0.67105E-20
      30   0.26893E-03  -0.35818E-20
      31   0.26893E-03   0.89434E-20
      32   0.26893E-03   0.12536E-19
      33   0.26893E-03   0.12374E-19
      34  -0.25798E-03  -0.49549E-20
      35  -0.25798E-03  -0.26353E-20
      36  -0.25798E-03  -0.10292E-19
      37  -0.25798E-03  -0.96097E-20
      38  -0.25798E-03  -0.90182E-20
      39  -0.25798E-03   0.46700E-21
      40  -0.25798E-03  -0.27267E-19
      41  -0.25798E-03  -0.23315E-19
      42  -0.25798E-03  -0.86733E-20
      43  -0.25798E-03  -0.79918E-20
      44  -0.25798E-03  -0.69668E-20
      45  -0.25798E-03  -0.22392E-19
      46  -0.25798E-03  -0.70257E-20
      47  -0.25798E-03  -0.24351E-19
      48  -0.25798E-03  -0.20840E-19
      49  -0.25798E-03  -0.25952E-19
      50  -0.25798E-03  -0.12217E-19
      51  -0.25798E-03  -0.73159E-20
      52  -0.25798E-03  -0.24641E-19
      53  -0.25798E-03  -0.24879E-19
      54  -0.25798E-03  -0.25508E-19
      55  -0.25798E-03  -0.21195E-19
      56  -0.25798E-03  -0.28079E-19
      57  -0.25798E-03  -0.27970E-19
      58   0.24743E-03   0.27594E-19
      59   0.24743E-03   0.21211E-19
      60   0.24743E-03   0.30147E-19
      61   0.24743E-03   0.24272E-19
      62   0.24743E-03   0.29344E-19
      63   0.24743E-03   0.25769E-19
      64   0.24743E-03   0.11784E-19
      65   0.24743E-03   0.37941E-19
      66   0.24743E-03   0.18643E-19
      67   0.24743E-03   0.39305E-19
      68   0.24743E-03   0.32752E-19
      69   0.24743E-03   0.37742E-19
      70   0.24743E-03   0.31113E-19
      71   0.24743E-03   0.24783E-19
      72   0.24743E-03   0.20353E-19
      73   0.24743E-03   0.41893E-19
      74   0.24743E-03   0.19748E-19
      75   0.24743E-03   0.40307E-19
      76   0.24743E-03   0.40354E-19
      77   0.24743E-03   0.37404E-19
      78   0.24743E-03   0.41652E-19
      79   0.24743E-03   0.39476E-19
      80   0.24743E-03   0.48250E-19
      81   0.24743E-03   0.41107E-19
      82   0.22751E-03  -0.11803E-19
      83   0.22751E-03  -0.12643E-19
      84   0.22751E-03   0.63313E-20
      85   0.22751E-03   0.48291E-20
      86   0.22751E-03  -0.12304E-19
      87   0.22751E-03   0.39433E-20
      88   0.22751E-03   0.58491E-20
      89   0.22751E-03   0.20267E-19
      90   0.22751E-03   0.42665E-20
      91   0.22751E-03   0.62192E-20
      92   0.22751E-03   0.21351E-19
      93   0.22751E-03   0.20510E-19
      94  -0.21811E-03   0.15404E-19
      95  -0.21811E-03   0.89368E-21
      96  -0.21811E-03  -0.42789E-20
      97  -0.21811E-03   0.33343E-20
      98  -0.21811E-03  -0.15664E-19
      99  -0.21811E-03   0.10553E-20
     100  -0.21811E-03  -0.18958E-19
  970015  -0.49827E-08   0.28327E-21
  970016  -0.49827E-08  -0.17888E-21
  970017  -0.49827E-08   0.25458E-21
  970018  -0.49827E-08   0.84922E-22
  970019  -0.49827E-08   0.62162E-22
  970020  -0.32497E-08   0.73438E-22
  970021  -0.40749E-08  -0.17279E-21
  970022  -0.40749E-08  -0.22428E-21
  970023  -0.40749E-08  -0.63020E-21
  970024  -0.40749E-08  -0.62269E-21
  970025  -0.32497E-08   0.73675E-21
  970026  -0.32497E-08   0.63462E-21
  970027  -0.40749E-08  -0.50277E-21
  970028  -0.40749E-08  -0.49045E-21
  970029  -0.40749E-08  -0.18784E-21
  970030  -0.40749E-08  -0.24097E-21
  970031  -0.32497E-08  -0.31756E-21
  970032  -0.26398E-08  -0.11308E-21
  970033  -0.26398E-08  -0.10732E-21
  970034  -0.22072E-08  -0.23493E-21
  970035  -0.22072E-08  -0.21462E-21
  970036  -0.22072E-08  -0.92983E-22
  970037  -0.22072E-08  -0.27069E-21
  970038  -0.26398E-08   0.13714E-21
  970039  -0.26398E-08  -0.74649E-22
  970040  -0.26398E-08   0.65487E-23
  970041  -0.26398E-08  -0.20247E-21
  970042  -0.22072E-08  -0.10266E-21
  970043  -0.22072E-08  -0.27732E-21
  970044  -0.22072E-08  -0.31365E-21
  970045  -0.22072E-08  -0.29405E-21
  970046  -0.26398E-08  -0.24840E-21
  970047  -0.26398E-08  -0.24061E-21
  970048  -0.44705E-08  -0.16028E-21
  970049  -0.44705E-08  -0.15041E-21
  970050  -0.44705E-08  -0.13428E-21
  970051  -0.44705E-08   0.12760E-21
  970052  -0.52301E-08  -0.31706E-21
  970053  -0.52301E-08  -0.16025E-22
  970054  -0.58321E-08  -0.17041E-21
  970055  -0.58321E-08  -0.12125E-21
  970056  -0.58321E-08  -0.18094E-21
  970057  -0.58321E-08  -0.29062E-22
  970058  -0.52301E-08  -0.58711E-21
  970059  -0.52301E-08  -0.20651E-21
  970060  -0.52301E-08  -0.16476E-21
  970061  -0.52301E-08   0.21353E-21
  970062  -0.58321E-08  -0.89854E-22
  970063  -0.58321E-08   0.59431E-22
  970064  -0.58321E-08  -0.21296E-21
  970065  -0.58321E-08  -0.16362E-21
  970066  -0.52301E-08  -0.17982E-21
  970067  -0.52301E-08   0.11624E-21
  970068  -0.28658E-08  -0.17081E-21
  970069  -0.28658E-08   0.23555E-21
  970070  -0.28658E-08  -0.57366E-21
  970071  -0.28658E-08  -0.58037E-21
  970072  -0.28658E-08  -0.38986E-22
  970073  -0.28658E-08  -0.42206E-22
  970074  -0.28658E-08  -0.31167E-21
  970075  -0.28658E-08   0.97848E-22
  970076  -0.10421E-09   0.21065E-22
  970077  -0.10421E-09   0.14878E-21
  970078  -0.10421E-09   0.81749E-22
  970079  -0.10421E-09  -0.16663E-22
  970080  -0.10421E-09   0.10656E-22
  970081  -0.10421E-09  -0.87324E-22
  970082  -0.10421E-09  -0.14484E-21
  970083  -0.10421E-09  -0.17910E-22
  970084  -0.63787E-08  -0.14550E-21
  970085  -0.64317E-08  -0.37420E-21
  970086  -0.64317E-08  -0.59680E-22
  970087  -0.64317E-08  -0.34652E-21
  970088  -0.64317E-08  -0.12543E-21
  970089  -0.63787E-08  -0.41976E-21
  970090  -0.63787E-08   0.24085E-21
  970091  -0.64317E-08  -0.23613E-22
  970092  -0.64317E-08   0.19746E-21
  970093  -0.64317E-08  -0.14170E-21
  970094  -0.64317E-08   0.17502E-21
  970095  -0.63787E-08   0.63621E-22
  970096  -0.88544E-08   0.12956E-21
  970097  -0.88544E-08  -0.73449E-23
  970098  -0.79639E-08   0.10312E-21
  970099  -0.79639E-08   0.20157E-21
  970100  -0.79639E-08   0.19305E-21
  970101  -0.79639E-08   0.49022E-22
  970102  -0.88544E-08   0.44856E-21
  970103  -0.88544E-08   0.40208E-21
  970104  -0.88544E-08   0.34253E-21
  970105  -0.88544E-08   0.29599E-21
  970106  -0.79639E-08   0.26356E-21
  970107  -0.79639E-08   0.12017E-21
  970108  -0.79639E-08  -0.21992E-22
  970109  -0.79639E-08   0.78033E-22
  970110  -0.88544E-08   0.17405E-21
  970111  -0.88544E-08   0.35828E-22
  970112  -0.35590E-08  -0.34343E-20
  970113  -0.35590E-08  -0.33230E-20
  970114  -0.35590E-08  -0.33357E-20
  970115  -0.35590E-08  -0.35059E-20
  ------------ 

     Initial potential from superposition of free atoms

     starting charge    1.99917, renormalised to    2.00000
ir  rho%of_r(ir)  rho_core   arhoxa=rho%of_r + rho_core
     1   0.152790E-06   0.000000E+00   0.152790E-06  -0.177222E-01
     2   0.916012E-08   0.000000E+00   0.916012E-08  -0.726868E-02
     3   0.342215E-07   0.000000E+00   0.342215E-07  -0.110569E-01
     4   0.537096E-08   0.000000E+00   0.537096E-08  -0.612707E-02
     5   0.455815E-07   0.000000E+00   0.455815E-07  -0.121074E-01
     6   0.214573E-07   0.000000E+00   0.214573E-07  -0.953422E-02
     7  -0.492119E-07   0.000000E+00   0.492119E-07  -0.124044E-01
     8  -0.264926E-07   0.000000E+00   0.264926E-07  -0.101946E-01
     9  -0.154318E-07   0.000000E+00   0.154318E-07  -0.858475E-02
    10  -0.126048E-07   0.000000E+00   0.126048E-07  -0.804852E-02
    11   0.112140E-06   0.000000E+00   0.112140E-06  -0.160819E-01
    12   0.234290E-07   0.000000E+00   0.234290E-07  -0.980435E-02
    13  -0.652335E-07   0.000000E+00   0.652335E-07  -0.135593E-01
    14  -0.326803E-07   0.000000E+00   0.326803E-07  -0.108966E-01
    15   0.116166E-06   0.000000E+00   0.116166E-06  -0.162612E-01
    16  -0.757517E-07   0.000000E+00   0.757517E-07  -0.142139E-01
    17  -0.692824E-07   0.000000E+00   0.692824E-07  -0.138193E-01
    18   0.515191E-07   0.000000E+00   0.515191E-07  -0.125854E-01
    19   0.442512E-07   0.000000E+00   0.442512E-07  -0.119945E-01

     negative rho (up, down):  1.621E-05 0.000E+00
     Starting wfc are    4 randomized atomic wfcs +   21 random wfc

     total cpu time spent up to now is       63.0 secs

     per-process dynamical memory:   630.8 Mb

     Self-consistent Calculation

     iteration #  1     ecut=   150.00 Ry     beta=0.70
     Davidson diagonalization with overlap
     ethr =  1.00E-02,  avg # of iterations =  8.5

     Threshold (ethr) on eigenvalues was too large:
     Diagonalizing with lowered threshold

     Davidson diagonalization with overlap
     c_bands:  1 eigenvalues not converged
     c_bands:  1 eigenvalues not converged
     ethr =  2.26E-08,  avg # of iterations = 19.5
ir  rho%of_r(ir)  rho_core   arhoxa=rho%of_r + rho_core
     1   0.411633E-07   0.000000E+00   0.411633E-07  -0.117230E-01
     2   0.413347E-07   0.000000E+00   0.413347E-07  -0.117385E-01
     3   0.418543E-07   0.000000E+00   0.418543E-07  -0.117850E-01
     4   0.427311E-07   0.000000E+00   0.427311E-07  -0.118625E-01
     5   0.439675E-07   0.000000E+00   0.439675E-07  -0.119701E-01
     6   0.455616E-07   0.000000E+00   0.455616E-07  -0.121057E-01
     7   0.475171E-07   0.000000E+00   0.475171E-07  -0.122677E-01
     8   0.498459E-07   0.000000E+00   0.498459E-07  -0.124547E-01
     9   0.525595E-07   0.000000E+00   0.525595E-07  -0.126651E-01
    10   0.556646E-07   0.000000E+00   0.556646E-07  -0.128969E-01
    11   0.591671E-07   0.000000E+00   0.591671E-07  -0.131479E-01
    12   0.630763E-07   0.000000E+00   0.630763E-07  -0.134162E-01
    13   0.674026E-07   0.000000E+00   0.674026E-07  -0.136999E-01
    14   0.721538E-07   0.000000E+00   0.721538E-07  -0.139975E-01
    15   0.773377E-07   0.000000E+00   0.773377E-07  -0.143070E-01
    16   0.829673E-07   0.000000E+00   0.829673E-07  -0.146273E-01
    17   0.890587E-07   0.000000E+00   0.890587E-07  -0.149573E-01
    18   0.956235E-07   0.000000E+00   0.956235E-07  -0.152959E-01
    19   0.102669E-06   0.000000E+00   0.102669E-06  -0.156419E-01

     total cpu time spent up to now is      505.3 secs

     End of self-consistent calculation

          k = 0.0000 0.0000 0.0000 (121409 PWs)   bands (ev):

    -4.4741  -0.9088  -0.9088  -0.9088  -0.1063   1.0410   1.0410   2.3610
     2.3610   2.3610   2.4462   2.4462   2.4462   2.7238   3.4348   3.4348
     3.4348   3.4669   3.4669   5.1538   5.1935   5.1935   5.1935   5.2100
     5.2100

          k = 0.0000 0.0000-0.1429 (121310 PWs)   bands (ev):

    -4.4572  -1.2633  -0.8712  -0.8712   0.3971   0.9878   1.2450   1.6510
     1.6510   2.2132   2.5614   2.7598   2.8037   2.9745   2.9745   3.4759
     3.9773   3.9773   4.0760   4.2167   5.1442   5.1442   5.2946   5.2946
     5.2964

          k = 0.0000-0.1429-0.1429 (121328 PWs)   bands (ev):

    -4.4413  -1.1878  -1.1878  -0.8377   0.5684   0.9371   1.5401   1.5401
     1.8477   1.8477   2.7296   2.7628   2.8357   2.9589   2.9602   2.9602
     3.9949   4.5444   4.5699   4.5699   4.8624   5.1422   5.1422   5.7139
     5.7139

          k =-0.1429-0.1429-0.1429 (120792 PWs)   bands (ev):

    -4.4262  -1.1254  -1.1254  -1.1254   0.8644   0.8644   0.8644   1.4680
     2.2857   2.2857   2.2857   2.6011   3.0400   3.0400   3.9640   3.9640
     3.9640   4.7547   4.7547   4.7547   4.9097   4.9097   4.9097   5.1823
     5.1824

     the Fermi energy is    -1.9679 ev

!    total energy              =      -2.52882321 Ry
     Harris-Foulkes estimate   =      -2.52882046 Ry
     estimated scf accuracy    <       0.00000060 Ry

     The total energy is the sum of the following terms:

     one-electron contribution =      -0.71669957 Ry
     hartree contribution      =       0.48459591 Ry
     xc contribution           =      -1.57613606 Ry
     ewald contribution        =      -0.72058349 Ry
     smearing contrib. (-TS)   =      -0.00000000 Ry

     convergence has been achieved in   1 iterations
ir  rho%of_r(ir)  rho_core   arhoxa=rho%of_r + rho_core
     1   0.411633E-07   0.000000E+00   0.411633E-07  -0.117230E-01
     2   0.413347E-07   0.000000E+00   0.413347E-07  -0.117385E-01
     3   0.418543E-07   0.000000E+00   0.418543E-07  -0.117850E-01
     4   0.427311E-07   0.000000E+00   0.427311E-07  -0.118625E-01
     5   0.439675E-07   0.000000E+00   0.439675E-07  -0.119701E-01
     6   0.455616E-07   0.000000E+00   0.455616E-07  -0.121057E-01
     7   0.475171E-07   0.000000E+00   0.475171E-07  -0.122677E-01
     8   0.498459E-07   0.000000E+00   0.498459E-07  -0.124547E-01
     9   0.525595E-07   0.000000E+00   0.525595E-07  -0.126651E-01
    10   0.556646E-07   0.000000E+00   0.556646E-07  -0.128969E-01
    11   0.591671E-07   0.000000E+00   0.591671E-07  -0.131479E-01
    12   0.630763E-07   0.000000E+00   0.630763E-07  -0.134162E-01
    13   0.674026E-07   0.000000E+00   0.674026E-07  -0.136999E-01
    14   0.721538E-07   0.000000E+00   0.721538E-07  -0.139975E-01
    15   0.773377E-07   0.000000E+00   0.773377E-07  -0.143070E-01
    16   0.829673E-07   0.000000E+00   0.829673E-07  -0.146273E-01
    17   0.890587E-07   0.000000E+00   0.890587E-07  -0.149573E-01
    18   0.956235E-07   0.000000E+00   0.956235E-07  -0.152959E-01
    19   0.102669E-06   0.000000E+00   0.102669E-06  -0.156419E-01

     Forces acting on atoms (Ry/au):

     atom    1 type  1   force =     0.00000000    0.00000000    0.00000000

     Total force =     0.000000     Total SCF correction =     0.000000


     entering subroutine stress ...

ir  rho%of_r(ir)  rho_core   arhoxa=rho%of_r + rho_core
     1   0.411633E-07   0.000000E+00   0.411633E-07  -0.117230E-01
     2   0.413347E-07   0.000000E+00   0.413347E-07  -0.117385E-01
     3   0.418543E-07   0.000000E+00   0.418543E-07  -0.117850E-01
     4   0.427311E-07   0.000000E+00   0.427311E-07  -0.118625E-01
     5   0.439675E-07   0.000000E+00   0.439675E-07  -0.119701E-01
     6   0.455616E-07   0.000000E+00   0.455616E-07  -0.121057E-01
     7   0.475171E-07   0.000000E+00   0.475171E-07  -0.122677E-01
     8   0.498459E-07   0.000000E+00   0.498459E-07  -0.124547E-01
     9   0.525595E-07   0.000000E+00   0.525595E-07  -0.126651E-01
    10   0.556646E-07   0.000000E+00   0.556646E-07  -0.128969E-01
    11   0.591671E-07   0.000000E+00   0.591671E-07  -0.131479E-01
    12   0.630763E-07   0.000000E+00   0.630763E-07  -0.134162E-01
    13   0.674026E-07   0.000000E+00   0.674026E-07  -0.136999E-01
    14   0.721538E-07   0.000000E+00   0.721538E-07  -0.139975E-01
    15   0.773377E-07   0.000000E+00   0.773377E-07  -0.143070E-01
    16   0.829673E-07   0.000000E+00   0.829673E-07  -0.146273E-01
    17   0.890587E-07   0.000000E+00   0.890587E-07  -0.149573E-01
    18   0.956235E-07   0.000000E+00   0.956235E-07  -0.152959E-01
    19   0.102669E-06   0.000000E+00   0.102669E-06  -0.156419E-01
          total   stress  (Ry/bohr**3)                   (kbar)     P=   -0.02
  -0.00000014   0.00000000   0.00000000         -0.02      0.00      0.00
   0.00000000  -0.00000014   0.00000000          0.00     -0.02      0.00
   0.00000000   0.00000000  -0.00000014          0.00      0.00     -0.02


     Writing output data file Mg.save
 
     init_run     :     33.73s CPU     61.87s WALL (       1 calls)
     electrons    :    413.65s CPU    442.33s WALL (       1 calls)
     forces       :      0.88s CPU      0.90s WALL (       1 calls)
     stress       :      2.84s CPU      3.33s WALL (       1 calls)

     Called by init_run:
     wfcinit      :     22.50s CPU     22.98s WALL (       1 calls)
     potinit      :      0.48s CPU      0.54s WALL (       1 calls)

     Called by electrons:
     c_bands      :    387.58s CPU    389.34s WALL (       2 calls)
     sum_band     :     25.75s CPU     52.57s WALL (       2 calls)
     v_of_rho     :      0.40s CPU      0.41s WALL (       2 calls)
     mix_rho      :      0.02s CPU      0.03s WALL (       2 calls)

     Called by c_bands:
     init_us_2    :      0.30s CPU      0.33s WALL (      28 calls)
     cegterg      :    387.30s CPU    389.02s WALL (       8 calls)

     Called by sum_band:

     Called by *egterg:
     h_psi        :    385.68s CPU    385.82s WALL (     124 calls)
     g_psi        :      1.08s CPU      1.09s WALL (     112 calls)
     cdiaghg      :      0.17s CPU      0.28s WALL (     116 calls)

     Called by h_psi:
     h_psi:pot    :    384.70s CPU    384.73s WALL (     124 calls)
     h_psi:calbec :      0.94s CPU      0.99s WALL (     124 calls)
     vloc_psi     :    383.12s CPU    383.10s WALL (     124 calls)
     add_vuspsi   :      0.64s CPU      0.63s WALL (     124 calls)

     General routines
     calbec       :      1.19s CPU      1.23s WALL (     144 calls)
     fft          :      1.78s CPU      1.88s WALL (      17 calls)
     fftw         :    392.40s CPU    392.34s WALL (    3804 calls)
     davcio       :      0.00s CPU      0.30s WALL (       4 calls)
 
 
     PWSCF        :  7m31.28s CPU     8m30.22s WALL

 
   This run was terminated on:  19:40: 6  26Jul2018            

=------------------------------------------------------------------------------=
   JOB DONE.
=------------------------------------------------------------------------------=
