
     Program PWSCF v.6.0 (svn rev. 13079) starts on 26Jul2018 at 19: 1:24 

     This program is part of the open-source Quantum ESPRESSO suite
     for quantum simulation of materials; please cite
         "P. Giannozzi et al., J. Phys.:Condens. Matter 21 395502 (2009);
          URL http://www.quantum-espresso.org", 
     in publications or presentations arising from this work. More details at
     http://www.quantum-espresso.org/quote

     Serial version
     Waiting for input...
     Reading input from standard input
     Message from routine read_cards :
     DEPRECATED: no units specified in CELL_PARAMETERS card

     Current dimensions of program PWSCF are:
     Max number of different atomic species (ntypx) = 10
     Max number of k-points (npk) =  40000
     Max angular momentum in pseudopotentials (lmaxx) =  3
 
     G-vector sticks info
     --------------------
     sticks:   dense  smooth     PW     G-vecs:    dense   smooth      PW
     Sum       11873   11873   3125               970115   970115  131827
 


     bravais-lattice index     =            0
     lattice parameter (alat)  =       4.5000  a.u.
     unit-cell volume          =    3906.9844 (a.u.)^3
     number of atoms/cell      =            1
     number of atomic types    =            1
     number of electrons       =         4.00
     number of Kohn-Sham states=           25
     kinetic-energy cutoff     =     150.0000  Ry
     charge density cutoff     =     600.0000  Ry
     convergence threshold     =      5.0E-06
     mixing beta               =       0.7000
     number of iterations used =            4  local-TF  mixing
     Exchange-correlation      = PZ ( 1  1  0  0 0 0)

     celldm(1)=   4.500000  celldm(2)=   0.000000  celldm(3)=   0.000000
     celldm(4)=   0.000000  celldm(5)=   0.000000  celldm(6)=   0.000000

     crystal axes: (cart. coord. in units of alat)
               a(1) = (   3.500000   0.000000   0.000000 )  
               a(2) = (   0.000000   3.500000   0.000000 )  
               a(3) = (   0.000000   0.000000   3.500000 )  

     reciprocal axes: (cart. coord. in units 2 pi/alat)
               b(1) = (  0.285714  0.000000  0.000000 )  
               b(2) = (  0.000000  0.285714  0.000000 )  
               b(3) = (  0.000000  0.000000  0.285714 )  


     PseudoPot. # 1 for Si read from file:
     ./Si.UPF
     MD5 check sum: 8111a5eb0e1e92b45d24d853d781ce8e
     Pseudo is Norm-conserving + core correction, Zval =  4.0
     Generated using "atomic" code by A. Dal Corso  v.6.0 svn rev. 13079
     Using radial grid of 1141 points,  2 beta functions with: 
                l(1) =   0
                l(2) =   1

     atomic species   valence    mass     pseudopotential
        Si             4.00    12.00000     Si( 1.00)

     Starting magnetic structure 
     atomic species   magnetization
        Si           0.010

     48 Sym. Ops., with inversion, found



   Cartesian axes

     site n.     atom                  positions (alat units)
         1           Si  tau(   1) = (   1.7500000   1.7500000   1.7500000  )

     number of k points=     4  gaussian smearing, width (Ry)=  0.0030
                       cart. coord. in units 2pi/alat
        k(    1) = (   0.0000000   0.0000000   0.0000000), wk =   0.1250000
        k(    2) = (   0.0000000   0.0000000  -0.1428571), wk =   0.3750000
        k(    3) = (   0.0000000  -0.1428571  -0.1428571), wk =   0.3750000
        k(    4) = (  -0.1428571  -0.1428571  -0.1428571), wk =   0.1250000

     Dense  grid:   970115 G-vectors     FFT dimensions: ( 123, 123, 123)

     Estimated max dynamical RAM per process >    1483.95Mb
     Generating pointlists ...
     new r_m :   0.4125 (alat units)  1.8563 (a.u.) for type    1
dfftp%nnr =1860867
    123    123    123    123    123    123
SIZE(dfftp%isind) =   15129
bg(1:3,1):   0.2857  0.0000  0.0000
bg(1:3,2):   0.0000  0.2857  0.0000
bg(1:3,3):   0.0000  0.0000  0.2857
at(1:3,1):   3.5000  0.0000  0.0000
at(1:3,2):   0.0000  3.5000  0.0000
at(1:3,3):   0.0000  0.0000  3.5000
nt =     1 na =    1
tau(:,na) =    1.75000   1.75000   1.75000
  k    rho_core(k)
       1   0.00000E+00
       2   0.00000E+00
       3   0.00000E+00
       4   0.00000E+00
       5   0.00000E+00
       6   0.00000E+00
       7   0.00000E+00
       8   0.00000E+00
       9   0.00000E+00
      10   0.00000E+00
      11   0.00000E+00
      12   0.00000E+00
      13   0.00000E+00
      14   0.00000E+00
      15   0.00000E+00
      16   0.00000E+00
      17   0.00000E+00
      18   0.00000E+00
      19   0.00000E+00
      20   0.00000E+00
      21   0.00000E+00
      22   0.00000E+00
      23   0.00000E+00
      24   0.00000E+00
      25   0.00000E+00
      26   0.00000E+00
      27   0.00000E+00
      28   0.00000E+00
      29   0.00000E+00
      30   0.00000E+00
      31   0.00000E+00
      32   0.00000E+00
      33   0.00000E+00
      34   0.00000E+00
      35   0.00000E+00
      36   0.00000E+00
      37   0.00000E+00
      38   0.00000E+00
      39   0.00000E+00
      40   0.00000E+00
      41   0.00000E+00
      42   0.00000E+00
      43   0.00000E+00
      44   0.00000E+00
      45   0.00000E+00
      46   0.00000E+00
      47   0.00000E+00
      48   0.00000E+00
      49   0.00000E+00
      50   0.00000E+00
      51   0.00000E+00
      52   0.00000E+00
      53   0.00000E+00
      54   0.00000E+00
      55   0.00000E+00
      56   0.00000E+00
      57   0.00000E+00
      58   0.00000E+00
      59   0.00000E+00
      60   0.00000E+00
      61   0.00000E+00
      62   0.00000E+00
      63   0.00000E+00
      64   0.00000E+00
      65   0.00000E+00
      66   0.00000E+00
      67   0.00000E+00
      68   0.00000E+00
      69   0.00000E+00
      70   0.00000E+00
      71   0.00000E+00
      72   0.00000E+00
      73   0.00000E+00
      74   0.00000E+00
      75   0.00000E+00
      76   0.00000E+00
      77   0.00000E+00
      78   0.00000E+00
      79   0.00000E+00
      80   0.00000E+00
      81   0.00000E+00
      82   0.00000E+00
      83   0.00000E+00
      84   0.00000E+00
      85   0.00000E+00
      86   0.00000E+00
      87   0.00000E+00
      88   0.00000E+00
      89   0.00000E+00
      90   0.00000E+00
      91   0.00000E+00
      92   0.00000E+00
      93   0.00000E+00
      94   0.00000E+00
      95   0.00000E+00
      96   0.00000E+00
      97   0.00000E+00
      98   0.00000E+00
      99   0.00000E+00
     100   0.00000E+00
     101   0.00000E+00
     102   0.00000E+00
     103   0.00000E+00
     104   0.00000E+00
     105   0.00000E+00
     106   0.00000E+00
     107   0.00000E+00
     108   0.00000E+00
     109   0.00000E+00
     110   0.00000E+00
     111   0.00000E+00
     112   0.00000E+00
     113   0.00000E+00
     114   0.00000E+00
     115   0.00000E+00
     116   0.00000E+00
     117   0.00000E+00
     118   0.00000E+00
     119   0.00000E+00
     120   0.00000E+00
     121   0.00000E+00
     122   0.00000E+00
     123   0.00000E+00
     124   0.00000E+00
     125   0.00000E+00
     126   0.00000E+00
     127   0.00000E+00
     128   0.00000E+00
     129   0.00000E+00
     130   0.00000E+00
     131   0.00000E+00
     132   0.00000E+00
     133   0.00000E+00
     134   0.00000E+00
     135   0.00000E+00
     136   0.00000E+00
     137   0.00000E+00
     138   0.00000E+00
     139   0.00000E+00
     140   0.00000E+00
     141   0.00000E+00
     142   0.00000E+00
     143   0.00000E+00
     144   0.00000E+00
     145   0.00000E+00
     146   0.00000E+00
     147   0.00000E+00
     148   0.00000E+00
     149   0.00000E+00
     150   0.00000E+00
     151   0.00000E+00
     152   0.00000E+00
     153   0.00000E+00
     154   0.00000E+00
     155   0.00000E+00
     156   0.00000E+00
     157   0.00000E+00
     158   0.00000E+00
     159   0.00000E+00
     160   0.00000E+00
     161   0.00000E+00
     162   0.00000E+00
     163   0.00000E+00
     164   0.00000E+00
     165   0.00000E+00
     166   0.00000E+00
     167   0.00000E+00
     168   0.00000E+00
     169   0.00000E+00
     170   0.00000E+00
     171   0.00000E+00
     172   0.00000E+00
     173   0.00000E+00
     174   0.00000E+00
     175   0.00000E+00
     176   0.00000E+00
     177   0.00000E+00
     178   0.00000E+00
     179   0.00000E+00
     180   0.00000E+00
     181   0.00000E+00
     182   0.00000E+00
     183   0.00000E+00
     184   0.00000E+00
     185   0.00000E+00
     186   0.00000E+00
     187   0.00000E+00
     188   0.00000E+00
     189   0.00000E+00
     190   0.00000E+00
     191   0.00000E+00
     192   0.00000E+00
     193   0.00000E+00
     194   0.00000E+00
     195   0.00000E+00
     196   0.00000E+00
     197   0.00000E+00
     198   0.00000E+00
     199   0.00000E+00
     200   0.00000E+00
     201   0.00000E+00
     202   0.00000E+00
     203   0.00000E+00
     204   0.00000E+00
     205   0.00000E+00
     206   0.00000E+00
     207   0.00000E+00
     208   0.00000E+00
     209   0.00000E+00
     210   0.00000E+00
     211   0.00000E+00
     212   0.00000E+00
     213   0.00000E+00
     214   0.00000E+00
     215   0.00000E+00
     216   0.00000E+00
     217   0.00000E+00
     218   0.00000E+00
     219   0.00000E+00
     220   0.00000E+00
     221   0.00000E+00
     222   0.00000E+00
     223   0.00000E+00
     224   0.00000E+00
     225   0.00000E+00
     226   0.00000E+00
     227   0.00000E+00
     228   0.00000E+00
     229   0.00000E+00
     230   0.00000E+00
     231   0.00000E+00
     232   0.00000E+00
     233   0.00000E+00
     234   0.00000E+00
     235   0.00000E+00
     236   0.00000E+00
     237   0.00000E+00
     238   0.00000E+00
     239   0.00000E+00
     240   0.00000E+00
     241   0.00000E+00
     242   0.00000E+00
     243   0.00000E+00
     244   0.00000E+00
     245   0.00000E+00
     246   0.00000E+00
     247   0.00000E+00
     248   0.00000E+00
     249   0.00000E+00
     250   0.00000E+00
     251   0.00000E+00
     252   0.00000E+00
     253   0.00000E+00
     254   0.00000E+00
     255   0.00000E+00
     256   0.00000E+00
     257   0.00000E+00
     258   0.00000E+00
     259   0.00000E+00
     260   0.00000E+00
     261   0.00000E+00
     262   0.00000E+00
     263   0.00000E+00
     264   0.00000E+00
     265   0.00000E+00
     266   0.00000E+00
     267   0.00000E+00
     268   0.00000E+00
     269   0.00000E+00
     270   0.00000E+00
     271   0.00000E+00
     272   0.00000E+00
     273   0.00000E+00
     274   0.00000E+00
     275   0.00000E+00
     276   0.00000E+00
     277   0.00000E+00
     278   0.00000E+00
     279   0.00000E+00
     280   0.00000E+00
     281   0.00000E+00
     282   0.00000E+00
     283   0.00000E+00
     284   0.00000E+00
     285   0.00000E+00
     286   0.00000E+00
     287   0.00000E+00
     288   0.00000E+00
     289   0.00000E+00
     290   0.00000E+00
     291   0.00000E+00
     292   0.00000E+00
     293   0.00000E+00
     294   0.00000E+00
     295   0.00000E+00
     296   0.00000E+00
     297   0.00000E+00
     298   0.00000E+00
     299   0.00000E+00
     300   0.00000E+00
  ------------ 
  k    averhoc
           1  7.431066099450057E-020
           2  9.269172322823493E-020
           3  1.576066140212905E-019
           4  3.016665424785810E-019
           5  5.951296563580220E-019
           6  1.189186305560178E-018
           7  2.376422836503637E-018
           8  4.755351092910548E-018
           9  9.525268948488496E-018
          10  1.906418700675075E-017
          11  3.818361206827683E-017
          12  7.651918483592756E-017
          13  1.531650824980384E-016
          14  3.074341111011706E-016
          15  6.158854059242646E-016
          16  1.234350020245609E-015
          17  2.478033374053411E-015
          18  4.972088709248425E-015
          19  9.976353616269995E-015
          20  2.002107451654744E-014
          21  4.020432132482140E-014
          22  8.076116902885586E-014
          23  1.623291262430756E-013
          24  3.263812225408240E-013
          25  6.563866815028071E-013
          26  1.321267127784873E-012
          27  2.659774798214771E-012
          28  5.354482120716443E-012
          29  1.079026828097404E-011
          30  2.175668608054389E-011
          31  4.386449833464130E-011
          32  8.856928114642971E-011
          33  1.788568993600951E-010
          34  3.612970122275755E-010
          35  7.308568481807251E-010
          36  1.478944674246776E-009
          37  2.996006607709631E-009
          38  6.075554801026826E-009
          39  1.233001677046584E-008
          40  2.503287182440061E-008
          41  5.090494563683900E-008
          42  1.036200763169518E-007
          43  2.111190117175687E-007
          44  4.305692153653751E-007
          45  8.788695579612282E-007
          46  1.795943802736702E-006
          47  3.672538813300577E-006
          48  7.515366278923523E-006
          49  1.539341141316165E-005
          50  3.151060057687328E-005
          51  6.449225001417750E-005
          52  1.317984657977128E-004
          53  2.687260618439773E-004
          54  5.439238736159730E-004
          55  1.004663954296306E-003
          56  1.613518893851177E-003
          57  2.313656434724363E-003
          58  3.039672111591977E-003
          59  3.723722221967388E-003
          60  4.301820245800988E-003
          61  4.720724492180633E-003
          62  4.940179989828675E-003
          63  4.940179989828675E-003
          64  4.720724492180633E-003
          65  4.301820245800988E-003
          66  3.723722221967388E-003
          67  3.039672111591977E-003
          68  2.313656434724363E-003
          69  1.613518893851177E-003
          70  1.004663954296306E-003
          71  5.439238736159730E-004
          72  2.687260618439754E-004
          73  1.317984657977128E-004
          74  6.449225001417750E-005
          75  3.151060057687345E-005
          76  1.539341141316157E-005
          77  7.515366278923523E-006
          78  3.672538813300600E-006
          79  1.795943802736688E-006
          80  8.788695579612282E-007
          81  4.305692153653751E-007
          82  2.111190117175701E-007
          83  1.036200763169511E-007
          84  5.090494563683900E-008
          85  2.503287182440061E-008
          86  1.233001677046590E-008
          87  6.075554801026826E-009
          88  2.996006607709631E-009
          89  1.478944674246778E-009
          90  7.308568481807208E-010
          91  3.612970122275755E-010
          92  1.788568993600955E-010
          93  8.856928114643010E-011
          94  4.386449833464121E-011
          95  2.175668608054389E-011
          96  1.079026828097407E-011
          97  5.354482120716425E-012
          98  2.659774798214771E-012
          99  1.321267127784873E-012
         100  6.563866815028071E-013
         101  3.263812225408240E-013
         102  1.623291262430756E-013
         103  8.076116902885586E-014
         104  4.020432132482166E-014
         105  2.002107451654744E-014
         106  9.976353616269995E-015
         107  4.972088709248425E-015
         108  2.478033374053398E-015
         109  1.234350020245609E-015
         110  6.158854059242646E-016
         111  3.074341111011720E-016
         112  1.531650824980378E-016
         113  7.651918483592756E-017
         114  3.818361206827683E-017
         115  1.906418700675060E-017
         116  9.525268948488496E-018
         117  4.755351092910548E-018
         118  2.376422836503649E-018
         119  1.189186305560170E-018
         120  5.951296563580220E-019
         121  3.016665424785810E-019
         122  1.576066140212912E-019
         123  9.269172322823468E-020
  ------------ 
  k    rhog_core(k)
       1   0.43461E-03   0.00000E+00
       2  -0.42540E-03  -0.21764E-19
       3  -0.42540E-03  -0.22866E-19
       4  -0.42540E-03  -0.12723E-19
       5  -0.42540E-03  -0.22575E-19
       6  -0.42540E-03  -0.24309E-19
       7  -0.42540E-03  -0.24346E-19
       8   0.41637E-03   0.43763E-19
       9   0.41637E-03   0.46811E-19
      10   0.41637E-03   0.45425E-19
      11   0.41637E-03   0.44132E-19
      12   0.41637E-03   0.48569E-19
      13   0.41637E-03   0.42431E-19
      14   0.41637E-03   0.46892E-19
      15   0.41637E-03   0.47455E-19
      16   0.41637E-03   0.45371E-19
      17   0.41637E-03   0.56714E-19
      18   0.41637E-03   0.47536E-19
      19   0.41637E-03   0.47126E-19
      20  -0.40752E-03  -0.62442E-19
      21  -0.40752E-03  -0.61455E-19
      22  -0.40752E-03  -0.62126E-19
      23  -0.40752E-03  -0.63015E-19
      24  -0.40752E-03  -0.61481E-19
      25  -0.40752E-03  -0.66213E-19
      26  -0.40752E-03  -0.63068E-19
      27  -0.40752E-03  -0.65863E-19
      28   0.39885E-03  -0.11643E-20
      29   0.39885E-03  -0.91716E-21
      30   0.39885E-03  -0.76696E-21
      31   0.39885E-03   0.14806E-19
      32   0.39885E-03   0.10948E-19
      33   0.39885E-03   0.10549E-19
      34  -0.39034E-03  -0.19826E-19
      35  -0.39034E-03  -0.26305E-19
      36  -0.39034E-03  -0.18583E-19
      37  -0.39034E-03  -0.20159E-19
      38  -0.39034E-03  -0.17362E-19
      39  -0.39034E-03  -0.20664E-19
      40  -0.39034E-03  -0.36628E-19
      41  -0.39034E-03  -0.30463E-19
      42  -0.39034E-03  -0.20979E-19
      43  -0.39034E-03  -0.20846E-19
      44  -0.39034E-03  -0.22374E-19
      45  -0.39034E-03  -0.32704E-19
      46  -0.39034E-03  -0.13096E-19
      47  -0.39034E-03  -0.38721E-19
      48  -0.39034E-03  -0.36959E-19
      49  -0.39034E-03  -0.31190E-19
      50  -0.39034E-03  -0.20967E-19
      51  -0.39034E-03  -0.27447E-19
      52  -0.39034E-03  -0.31074E-19
      53  -0.39034E-03  -0.31363E-19
      54  -0.39034E-03  -0.29387E-19
      55  -0.39034E-03  -0.37128E-19
      56  -0.39034E-03  -0.31376E-19
      57  -0.39034E-03  -0.32854E-19
      58   0.38200E-03   0.43199E-19
      59   0.38200E-03   0.40693E-19
      60   0.38200E-03   0.40040E-19
      61   0.38200E-03   0.40434E-19
      62   0.38200E-03   0.38973E-19
      63   0.38200E-03   0.36403E-19
      64   0.38200E-03   0.27216E-19
      65   0.38200E-03   0.53782E-19
      66   0.38200E-03   0.34500E-19
      67   0.38200E-03   0.49589E-19
      68   0.38200E-03   0.45231E-19
      69   0.38200E-03   0.51328E-19
      70   0.38200E-03   0.39820E-19
      71   0.38200E-03   0.39238E-19
      72   0.38200E-03   0.33921E-19
      73   0.38200E-03   0.52924E-19
      74   0.38200E-03   0.41959E-19
      75   0.38200E-03   0.52392E-19
      76   0.38200E-03   0.52218E-19
      77   0.38200E-03   0.47804E-19
      78   0.38200E-03   0.44604E-19
      79   0.38200E-03   0.47781E-19
      80   0.38200E-03   0.45500E-19
      81   0.38200E-03   0.52477E-19
      82   0.36582E-03  -0.48784E-20
      83   0.36582E-03  -0.23802E-20
      84   0.36582E-03   0.94298E-20
      85   0.36582E-03   0.90482E-20
      86   0.36582E-03   0.64820E-20
      87   0.36582E-03   0.10595E-19
      88   0.36582E-03   0.17758E-19
      89   0.36582E-03   0.20800E-19
      90   0.36582E-03   0.77684E-20
      91   0.36582E-03   0.16857E-19
      92   0.36582E-03   0.20948E-19
      93   0.36582E-03   0.21817E-19
      94  -0.35796E-03   0.17365E-19
      95  -0.35796E-03  -0.22930E-19
      96  -0.35796E-03  -0.17042E-19
      97  -0.35796E-03  -0.22572E-19
      98  -0.35796E-03  -0.28172E-19
      99  -0.35796E-03  -0.12936E-19
     100  -0.35796E-03  -0.27963E-19
  970015   0.32560E-07   0.49452E-21
  970016   0.32560E-07   0.16195E-21
  970017   0.32560E-07   0.45673E-21
  970018   0.32560E-07   0.31332E-22
  970019   0.32560E-07  -0.52588E-22
  970020   0.37221E-07  -0.74873E-21
  970021   0.31072E-07   0.41573E-22
  970022   0.31072E-07   0.69728E-22
  970023   0.31072E-07   0.82624E-22
  970024   0.31072E-07  -0.44500E-22
  970025   0.37221E-07  -0.35304E-21
  970026   0.37221E-07  -0.80625E-21
  970027   0.31072E-07   0.11725E-21
  970028   0.31072E-07  -0.17392E-22
  970029   0.31072E-07   0.82707E-22
  970030   0.31072E-07   0.10991E-21
  970031   0.37221E-07  -0.10135E-20
  970032   0.20266E-07  -0.68209E-21
  970033   0.20266E-07  -0.55749E-21
  970034   0.13136E-07  -0.69777E-21
  970035   0.13136E-07  -0.83895E-21
  970036   0.13136E-07  -0.42907E-21
  970037   0.13136E-07  -0.51127E-21
  970038   0.20266E-07  -0.21981E-21
  970039   0.20266E-07  -0.27511E-21
  970040   0.20266E-07  -0.23350E-21
  970041   0.20266E-07  -0.28220E-21
  970042   0.13136E-07  -0.47191E-21
  970043   0.13136E-07  -0.55350E-21
  970044   0.13136E-07  -0.71333E-21
  970045   0.13136E-07  -0.85607E-21
  970046   0.20266E-07  -0.79214E-21
  970047   0.20266E-07  -0.66570E-21
  970048   0.15680E-07  -0.52114E-21
  970049   0.15680E-07  -0.12422E-20
  970050   0.15680E-07  -0.85153E-21
  970051   0.15680E-07  -0.17777E-21
  970052   0.24529E-07  -0.29748E-21
  970053   0.24529E-07  -0.10577E-21
  970054   0.24783E-07  -0.55640E-21
  970055   0.24783E-07  -0.54324E-21
  970056   0.24783E-07  -0.45985E-21
  970057   0.24783E-07  -0.51316E-21
  970058   0.24529E-07  -0.77446E-21
  970059   0.24529E-07  -0.42700E-21
  970060   0.24529E-07  -0.62067E-21
  970061   0.24529E-07  -0.27273E-21
  970062   0.24783E-07  -0.43809E-21
  970063   0.24783E-07  -0.49321E-21
  970064   0.24783E-07  -0.66732E-21
  970065   0.24783E-07  -0.65311E-21
  970066   0.24529E-07  -0.21089E-22
  970067   0.24529E-07   0.16297E-21
  970068   0.34758E-07   0.13853E-21
  970069   0.34758E-07   0.30007E-21
  970070   0.34758E-07  -0.29834E-21
  970071   0.34758E-07  -0.50676E-21
  970072   0.34758E-07  -0.16012E-21
  970073   0.34758E-07  -0.36844E-21
  970074   0.34758E-07  -0.10759E-21
  970075   0.34758E-07   0.56063E-22
  970076   0.39882E-07   0.65784E-22
  970077   0.39882E-07   0.12742E-21
  970078   0.39882E-07   0.32128E-22
  970079   0.39882E-07   0.78203E-23
  970080   0.39882E-07   0.81254E-22
  970081   0.39882E-07   0.52524E-22
  970082   0.39882E-07   0.26874E-23
  970083   0.39882E-07   0.64198E-22
  970084   0.23125E-07  -0.36473E-21
  970085   0.24362E-07  -0.42255E-21
  970086   0.24362E-07  -0.34765E-21
  970087   0.24362E-07  -0.28223E-21
  970088   0.24362E-07  -0.12826E-21
  970089   0.23125E-07  -0.24263E-21
  970090   0.23125E-07   0.78910E-22
  970091   0.24362E-07  -0.21713E-21
  970092   0.24362E-07  -0.68084E-22
  970093   0.24362E-07  -0.21759E-21
  970094   0.24362E-07  -0.13865E-21
  970095   0.23125E-07  -0.10737E-21
  970096   0.66697E-08  -0.84213E-21
  970097   0.66697E-08  -0.85367E-21
  970098   0.70266E-08  -0.85124E-21
  970099   0.70266E-08  -0.82224E-21
  970100   0.70266E-08  -0.72484E-21
  970101   0.70266E-08  -0.83802E-21
  970102   0.66697E-08  -0.59546E-21
  970103   0.66697E-08  -0.60156E-21
  970104   0.66697E-08  -0.58469E-21
  970105   0.66697E-08  -0.59201E-21
  970106   0.70266E-08  -0.71688E-21
  970107   0.70266E-08  -0.83058E-21
  970108   0.70266E-08  -0.98955E-21
  970109   0.70266E-08  -0.96458E-21
  970110   0.66697E-08  -0.82592E-21
  970111   0.66697E-08  -0.83654E-21
  970112  -0.26414E-08  -0.61752E-20
  970113  -0.26414E-08  -0.60572E-20
  970114  -0.26414E-08  -0.60693E-20
  970115  -0.26414E-08  -0.61990E-20
  ------------ 

     Initial potential from superposition of free atoms

     starting charge    3.99951, renormalised to    4.00000

     negative rho (up, down):  4.113E-06 4.032E-06
     Starting wfc are    4 randomized atomic wfcs +   21 random wfc

     total cpu time spent up to now is       86.2 secs

     per-process dynamical memory:   945.9 Mb

     Self-consistent Calculation

     iteration #  1     ecut=   150.00 Ry     beta=0.70
     Davidson diagonalization with overlap
     ethr =  1.00E-02,  avg # of iterations =  8.4

     Threshold (ethr) on eigenvalues was too large:
     Diagonalizing with lowered threshold

     Davidson diagonalization with overlap
     ethr =  2.24E-05,  avg # of iterations = 13.1

     negative rho (up, down):  5.975E-07 3.006E-06

     total cpu time spent up to now is      826.3 secs

     total energy              =      -9.26846002 Ry
     Harris-Foulkes estimate   =      -9.26242023 Ry
     estimated scf accuracy    <       0.00089894 Ry

     total magnetization       =     0.82 Bohr mag/cell
     absolute magnetization    =     0.82 Bohr mag/cell

     iteration #  2     ecut=   150.00 Ry     beta=0.70
     Davidson diagonalization with overlap
     ethr =  2.25E-05,  avg # of iterations =  2.2

     negative rho (up, down):  6.681E-05 4.060E-05

     total cpu time spent up to now is     1017.1 secs

     total energy              =      -9.24042742 Ry
     Harris-Foulkes estimate   =      -9.28144918 Ry
     estimated scf accuracy    <       0.00294676 Ry

     total magnetization       =     2.00 Bohr mag/cell
     absolute magnetization    =     2.00 Bohr mag/cell

     iteration #  3     ecut=   150.00 Ry     beta=0.70
     Davidson diagonalization with overlap
     ethr =  2.25E-05,  avg # of iterations =  3.4

     negative rho (up, down):  1.379E-06 1.431E-06

     total cpu time spent up to now is     1225.0 secs

     total energy              =      -9.25876508 Ry
     Harris-Foulkes estimate   =      -9.27500094 Ry
     estimated scf accuracy    <       0.00377212 Ry

     total magnetization       =    -2.00 Bohr mag/cell
     absolute magnetization    =     2.00 Bohr mag/cell

     iteration #  4     ecut=   150.00 Ry     beta=0.70
     Davidson diagonalization with overlap
     ethr =  2.25E-05,  avg # of iterations =  2.1

     negative rho (up, down):  1.143E-06 1.211E-06

     total cpu time spent up to now is     1400.2 secs

     total energy              =      -9.26239467 Ry
     Harris-Foulkes estimate   =      -9.26210251 Ry
     estimated scf accuracy    <       0.00014303 Ry

     total magnetization       =     0.31 Bohr mag/cell
     absolute magnetization    =     0.31 Bohr mag/cell

     iteration #  5     ecut=   150.00 Ry     beta=0.70
     Davidson diagonalization with overlap
     ethr =  3.58E-06,  avg # of iterations =  2.4

     negative rho (up, down):  2.078E-06 1.673E-06

     total cpu time spent up to now is     1566.0 secs

     total energy              =      -9.25141794 Ry
     Harris-Foulkes estimate   =      -9.26290505 Ry
     estimated scf accuracy    <       0.00190120 Ry

     total magnetization       =     1.21 Bohr mag/cell
     absolute magnetization    =     1.21 Bohr mag/cell

     iteration #  6     ecut=   150.00 Ry     beta=0.70
     Davidson diagonalization with overlap
     ethr =  3.58E-06,  avg # of iterations =  3.0

     total cpu time spent up to now is     1767.9 secs

     total energy              =      -9.25649919 Ry
     Harris-Foulkes estimate   =      -9.27259175 Ry
     estimated scf accuracy    <       0.00407396 Ry

     total magnetization       =    -2.00 Bohr mag/cell
     absolute magnetization    =     2.00 Bohr mag/cell

     Maximum CPU time exceeded

     max_seconds     =    1700.00
     elapsed seconds =    1766.84
     Calculation stopped in scf loop at iteration #     6

     Writing output data file Si.save
 
     init_run     :     56.52s CPU     84.99s WALL (       1 calls)
     electrons    :   1581.39s CPU   1682.53s WALL (       1 calls)

     Called by init_run:
     wfcinit      :     44.79s CPU     45.71s WALL (       1 calls)
     potinit      :      0.86s CPU      0.99s WALL (       1 calls)

     Called by electrons:
     c_bands      :   1135.46s CPU   1143.65s WALL (       7 calls)
     sum_band     :    166.51s CPU    257.80s WALL (       7 calls)
     v_of_rho     :      2.46s CPU      2.51s WALL (       7 calls)
     mix_rho      :    276.82s CPU    277.69s WALL (       7 calls)

     Called by c_bands:
     init_us_2    :      1.27s CPU      1.31s WALL (     120 calls)
     cegterg      :   1133.46s CPU   1141.08s WALL (      56 calls)

     Called by sum_band:

     Called by *egterg:
     h_psi        :   1121.44s CPU   1121.81s WALL (     341 calls)
     g_psi        :      2.63s CPU      2.64s WALL (     277 calls)
     cdiaghg      :      0.35s CPU      0.58s WALL (     325 calls)

     Called by h_psi:
     h_psi:pot    :   1118.61s CPU   1118.73s WALL (     341 calls)
     h_psi:calbec :      2.76s CPU      2.83s WALL (     341 calls)
     vloc_psi     :   1113.92s CPU   1114.00s WALL (     341 calls)
     add_vuspsi   :      1.92s CPU      1.90s WALL (     341 calls)

     General routines
     calbec       :      2.76s CPU      2.82s WALL (     341 calls)
     fft          :      5.48s CPU      5.59s WALL (      53 calls)
     ffts         :    191.86s CPU    191.86s WALL (    1852 calls)
     fftw         :   1224.72s CPU   1224.90s WALL (   11908 calls)
     davcio       :      0.00s CPU      1.07s WALL (      18 calls)
 
 
     PWSCF        : 27m18.06s CPU    29m29.65s WALL

 
   This run was terminated on:  19:30:53  26Jul2018            

=------------------------------------------------------------------------------=
   JOB DONE.
=------------------------------------------------------------------------------=
