
     Program PWSCF v.6.0 (svn rev. 13079) starts on 26Jul2018 at 20:10:25 

     This program is part of the open-source Quantum ESPRESSO suite
     for quantum simulation of materials; please cite
         "P. Giannozzi et al., J. Phys.:Condens. Matter 21 395502 (2009);
          URL http://www.quantum-espresso.org", 
     in publications or presentations arising from this work. More details at
     http://www.quantum-espresso.org/quote

     Serial version
     Waiting for input...
     Reading input from standard input
     Message from routine read_cards :
     DEPRECATED: no units specified in CELL_PARAMETERS card

     Current dimensions of program PWSCF are:
     Max number of different atomic species (ntypx) = 10
     Max number of k-points (npk) =  40000
     Max angular momentum in pseudopotentials (lmaxx) =  3
 
     G-vector sticks info
     --------------------
     sticks:   dense  smooth     PW     G-vecs:    dense   smooth      PW
     Sum       11873   11873   3125               970115   970115  131827
 


     bravais-lattice index     =            0
     lattice parameter (alat)  =       4.5000  a.u.
     unit-cell volume          =    3906.9844 (a.u.)^3
     number of atoms/cell      =            1
     number of atomic types    =            1
     number of electrons       =         6.00
     number of Kohn-Sham states=           25
     kinetic-energy cutoff     =     150.0000  Ry
     charge density cutoff     =     600.0000  Ry
     convergence threshold     =      5.0E-06
     mixing beta               =       0.7000
     number of iterations used =            4  local-TF  mixing
     Exchange-correlation      = PZ ( 1  1  0  0 0 0)

     celldm(1)=   4.500000  celldm(2)=   0.000000  celldm(3)=   0.000000
     celldm(4)=   0.000000  celldm(5)=   0.000000  celldm(6)=   0.000000

     crystal axes: (cart. coord. in units of alat)
               a(1) = (   3.500000   0.000000   0.000000 )  
               a(2) = (   0.000000   3.500000   0.000000 )  
               a(3) = (   0.000000   0.000000   3.500000 )  

     reciprocal axes: (cart. coord. in units 2 pi/alat)
               b(1) = (  0.285714  0.000000  0.000000 )  
               b(2) = (  0.000000  0.285714  0.000000 )  
               b(3) = (  0.000000  0.000000  0.285714 )  


     PseudoPot. # 1 for  S read from file:
     ./S.UPF
     MD5 check sum: 651730ba214bad729da647b2013587ff
     Pseudo is Norm-conserving + core correction, Zval =  6.0
     Generated using "atomic" code by A. Dal Corso  v.6.0 svn rev. 13079
     Using radial grid of 1151 points,  2 beta functions with: 
                l(1) =   0
                l(2) =   1

     atomic species   valence    mass     pseudopotential
        S              6.00    12.00000      S( 1.00)

     Starting magnetic structure 
     atomic species   magnetization
        S            0.010

     48 Sym. Ops., with inversion, found



   Cartesian axes

     site n.     atom                  positions (alat units)
         1           S   tau(   1) = (   1.7500000   1.7500000   1.7500000  )

     number of k points=     4  gaussian smearing, width (Ry)=  0.0030
                       cart. coord. in units 2pi/alat
        k(    1) = (   0.0000000   0.0000000   0.0000000), wk =   0.1250000
        k(    2) = (   0.0000000   0.0000000  -0.1428571), wk =   0.3750000
        k(    3) = (   0.0000000  -0.1428571  -0.1428571), wk =   0.3750000
        k(    4) = (  -0.1428571  -0.1428571  -0.1428571), wk =   0.1250000

     Dense  grid:   970115 G-vectors     FFT dimensions: ( 123, 123, 123)

     Estimated max dynamical RAM per process >    1483.95Mb
     Generating pointlists ...
     new r_m :   0.4125 (alat units)  1.8563 (a.u.) for type    1
dfftp%nnr =1860867
    123    123    123    123    123    123
SIZE(dfftp%isind) =   15129
bg(1:3,1):   0.2857  0.0000  0.0000
bg(1:3,2):   0.0000  0.2857  0.0000
bg(1:3,3):   0.0000  0.0000  0.2857
at(1:3,1):   3.5000  0.0000  0.0000
at(1:3,2):   0.0000  3.5000  0.0000
at(1:3,3):   0.0000  0.0000  3.5000
nt =     1 na =    1
tau(:,na) =    1.75000   1.75000   1.75000
  k    rho_core(k)
       1   0.00000E+00
       2   0.00000E+00
       3   0.00000E+00
       4   0.00000E+00
       5   0.00000E+00
       6   0.00000E+00
       7   0.00000E+00
       8   0.00000E+00
       9   0.00000E+00
      10   0.00000E+00
      11   0.00000E+00
      12   0.00000E+00
      13   0.00000E+00
      14   0.00000E+00
      15   0.00000E+00
      16   0.00000E+00
      17   0.00000E+00
      18   0.00000E+00
      19   0.00000E+00
      20   0.00000E+00
      21   0.00000E+00
      22   0.00000E+00
      23   0.00000E+00
      24   0.00000E+00
      25   0.00000E+00
      26   0.00000E+00
      27   0.00000E+00
      28   0.00000E+00
      29   0.00000E+00
      30   0.00000E+00
      31   0.00000E+00
      32   0.00000E+00
      33   0.00000E+00
      34   0.00000E+00
      35   0.00000E+00
      36   0.00000E+00
      37   0.00000E+00
      38   0.00000E+00
      39   0.00000E+00
      40   0.00000E+00
      41   0.00000E+00
      42   0.00000E+00
      43   0.00000E+00
      44   0.00000E+00
      45   0.00000E+00
      46   0.00000E+00
      47   0.00000E+00
      48   0.00000E+00
      49   0.00000E+00
      50   0.00000E+00
      51   0.00000E+00
      52   0.00000E+00
      53   0.00000E+00
      54   0.00000E+00
      55   0.00000E+00
      56   0.00000E+00
      57   0.00000E+00
      58   0.00000E+00
      59   0.00000E+00
      60   0.00000E+00
      61   0.00000E+00
      62   0.00000E+00
      63   0.00000E+00
      64   0.00000E+00
      65   0.00000E+00
      66   0.00000E+00
      67   0.00000E+00
      68   0.00000E+00
      69   0.00000E+00
      70   0.00000E+00
      71   0.00000E+00
      72   0.00000E+00
      73   0.00000E+00
      74   0.00000E+00
      75   0.00000E+00
      76   0.00000E+00
      77   0.00000E+00
      78   0.00000E+00
      79   0.00000E+00
      80   0.00000E+00
      81   0.00000E+00
      82   0.00000E+00
      83   0.00000E+00
      84   0.00000E+00
      85   0.00000E+00
      86   0.00000E+00
      87   0.00000E+00
      88   0.00000E+00
      89   0.00000E+00
      90   0.00000E+00
      91   0.00000E+00
      92   0.00000E+00
      93   0.00000E+00
      94   0.00000E+00
      95   0.00000E+00
      96   0.00000E+00
      97   0.00000E+00
      98   0.00000E+00
      99   0.00000E+00
     100   0.00000E+00
     101   0.00000E+00
     102   0.00000E+00
     103   0.00000E+00
     104   0.00000E+00
     105   0.00000E+00
     106   0.00000E+00
     107   0.00000E+00
     108   0.00000E+00
     109   0.00000E+00
     110   0.00000E+00
     111   0.00000E+00
     112   0.00000E+00
     113   0.00000E+00
     114   0.00000E+00
     115   0.00000E+00
     116   0.00000E+00
     117   0.00000E+00
     118   0.00000E+00
     119   0.00000E+00
     120   0.00000E+00
     121   0.00000E+00
     122   0.00000E+00
     123   0.00000E+00
     124   0.00000E+00
     125   0.00000E+00
     126   0.00000E+00
     127   0.00000E+00
     128   0.00000E+00
     129   0.00000E+00
     130   0.00000E+00
     131   0.00000E+00
     132   0.00000E+00
     133   0.00000E+00
     134   0.00000E+00
     135   0.00000E+00
     136   0.00000E+00
     137   0.00000E+00
     138   0.00000E+00
     139   0.00000E+00
     140   0.00000E+00
     141   0.00000E+00
     142   0.00000E+00
     143   0.00000E+00
     144   0.00000E+00
     145   0.00000E+00
     146   0.00000E+00
     147   0.00000E+00
     148   0.00000E+00
     149   0.00000E+00
     150   0.00000E+00
     151   0.00000E+00
     152   0.00000E+00
     153   0.00000E+00
     154   0.00000E+00
     155   0.00000E+00
     156   0.00000E+00
     157   0.00000E+00
     158   0.00000E+00
     159   0.00000E+00
     160   0.00000E+00
     161   0.00000E+00
     162   0.00000E+00
     163   0.00000E+00
     164   0.00000E+00
     165   0.00000E+00
     166   0.00000E+00
     167   0.00000E+00
     168   0.00000E+00
     169   0.00000E+00
     170   0.00000E+00
     171   0.00000E+00
     172   0.00000E+00
     173   0.00000E+00
     174   0.00000E+00
     175   0.00000E+00
     176   0.00000E+00
     177   0.00000E+00
     178   0.00000E+00
     179   0.00000E+00
     180   0.00000E+00
     181   0.00000E+00
     182   0.00000E+00
     183   0.00000E+00
     184   0.00000E+00
     185   0.00000E+00
     186   0.00000E+00
     187   0.00000E+00
     188   0.00000E+00
     189   0.00000E+00
     190   0.00000E+00
     191   0.00000E+00
     192   0.00000E+00
     193   0.00000E+00
     194   0.00000E+00
     195   0.00000E+00
     196   0.00000E+00
     197   0.00000E+00
     198   0.00000E+00
     199   0.00000E+00
     200   0.00000E+00
     201   0.00000E+00
     202   0.00000E+00
     203   0.00000E+00
     204   0.00000E+00
     205   0.00000E+00
     206   0.00000E+00
     207   0.00000E+00
     208   0.00000E+00
     209   0.00000E+00
     210   0.00000E+00
     211   0.00000E+00
     212   0.00000E+00
     213   0.00000E+00
     214   0.00000E+00
     215   0.00000E+00
     216   0.00000E+00
     217   0.00000E+00
     218   0.00000E+00
     219   0.00000E+00
     220   0.00000E+00
     221   0.00000E+00
     222   0.00000E+00
     223   0.00000E+00
     224   0.00000E+00
     225   0.00000E+00
     226   0.00000E+00
     227   0.00000E+00
     228   0.00000E+00
     229   0.00000E+00
     230   0.00000E+00
     231   0.00000E+00
     232   0.00000E+00
     233   0.00000E+00
     234   0.00000E+00
     235   0.00000E+00
     236   0.00000E+00
     237   0.00000E+00
     238   0.00000E+00
     239   0.00000E+00
     240   0.00000E+00
     241   0.00000E+00
     242   0.00000E+00
     243   0.00000E+00
     244   0.00000E+00
     245   0.00000E+00
     246   0.00000E+00
     247   0.00000E+00
     248   0.00000E+00
     249   0.00000E+00
     250   0.00000E+00
     251   0.00000E+00
     252   0.00000E+00
     253   0.00000E+00
     254   0.00000E+00
     255   0.00000E+00
     256   0.00000E+00
     257   0.00000E+00
     258   0.00000E+00
     259   0.00000E+00
     260   0.00000E+00
     261   0.00000E+00
     262   0.00000E+00
     263   0.00000E+00
     264   0.00000E+00
     265   0.00000E+00
     266   0.00000E+00
     267   0.00000E+00
     268   0.00000E+00
     269   0.00000E+00
     270   0.00000E+00
     271   0.00000E+00
     272   0.00000E+00
     273   0.00000E+00
     274   0.00000E+00
     275   0.00000E+00
     276   0.00000E+00
     277   0.00000E+00
     278   0.00000E+00
     279   0.00000E+00
     280   0.00000E+00
     281   0.00000E+00
     282   0.00000E+00
     283   0.00000E+00
     284   0.00000E+00
     285   0.00000E+00
     286   0.00000E+00
     287   0.00000E+00
     288   0.00000E+00
     289   0.00000E+00
     290   0.00000E+00
     291   0.00000E+00
     292   0.00000E+00
     293   0.00000E+00
     294   0.00000E+00
     295   0.00000E+00
     296   0.00000E+00
     297   0.00000E+00
     298   0.00000E+00
     299   0.00000E+00
     300   0.00000E+00
  ------------ 
  k    averhoc
           1  0.000000000000000E+000
           2  0.000000000000000E+000
           3  4.681248499970539E-025
           4  3.596758869266076E-024
           5  1.133996885396940E-023
           6  3.015157569150588E-023
           7  7.556250682445747E-023
           8  1.862496889885999E-022
           9  4.523812294268902E-022
          10  1.102560714288301E-021
          11  2.667787069737522E-021
          12  6.490057176320779E-021
          13  1.573403289806506E-020
          14  3.814829282233283E-020
          15  9.280361047174477E-020
          16  2.252057925047071E-019
          17  5.464785615312343E-019
          18  1.329464515787657E-018
          19  3.234947721498665E-018
          20  7.867776486651346E-018
          21  1.913737418503172E-017
          22  4.658544125407669E-017
          23  1.134433302476321E-016
          24  2.764712935137632E-016
          25  6.742331769037053E-016
          26  1.644750162063976E-015
          27  4.011716219537326E-015
          28  9.797392767060658E-015
          29  2.396196785767642E-014
          30  5.854939427645033E-014
          31  1.434354819783998E-013
          32  3.510566564410410E-013
          33  8.609109914724433E-013
          34  2.112820419006071E-012
          35  5.188436034733595E-012
          36  1.275687053760446E-011
          37  3.139072310183221E-011
          38  7.735431591097937E-011
          39  1.908623105070456E-010
          40  4.716123980543719E-010
          41  1.167156865951715E-009
          42  2.891500995587253E-009
          43  7.177249912472155E-009
          44  1.784498586514583E-008
          45  4.442034432720023E-008
          46  1.107758958695034E-007
          47  2.764944382030923E-007
          48  6.913539545729194E-007
          49  1.729766695936441E-006
          50  4.330009240707552E-006
          51  1.083658278114673E-005
          52  2.707852918185928E-005
          53  6.744567273607740E-005
          54  1.670412506100689E-004
          55  4.105395198531961E-004
          56  9.957038040890205E-004
          57  2.350238881807039E-003
          58  5.092787973203196E-003
          59  9.540139341682742E-003
          60  1.516494647995045E-002
          61  2.052410973583817E-002
          62  2.382260439473379E-002
          63  2.382260439473379E-002
          64  2.052410973583817E-002
          65  1.516494647995045E-002
          66  9.540139341682742E-003
          67  5.092787973203196E-003
          68  2.350238881807039E-003
          69  9.957038040890205E-004
          70  4.105395198531961E-004
          71  1.670412506100689E-004
          72  6.744567273607689E-005
          73  2.707852918185928E-005
          74  1.083658278114673E-005
          75  4.330009240707581E-006
          76  1.729766695936430E-006
          77  6.913539545729194E-007
          78  2.764944382030948E-007
          79  1.107758958695025E-007
          80  4.442034432720023E-008
          81  1.784498586514583E-008
          82  7.177249912472190E-009
          83  2.891500995587228E-009
          84  1.167156865951715E-009
          85  4.716123980543719E-010
          86  1.908623105070471E-010
          87  7.735431591097937E-011
          88  3.139072310183221E-011
          89  1.275687053760449E-011
          90  5.188436034733567E-012
          91  2.112820419006071E-012
          92  8.609109914724474E-013
          93  3.510566564410432E-013
          94  1.434354819783993E-013
          95  5.854939427645033E-014
          96  2.396196785767652E-014
          97  9.797392767060579E-015
          98  4.011716219537326E-015
          99  1.644750162063976E-015
         100  6.742331769037053E-016
         101  2.764712935137632E-016
         102  1.134433302476321E-016
         103  4.658544125407669E-017
         104  1.913737418503192E-017
         105  7.867776486651346E-018
         106  3.234947721498665E-018
         107  1.329464515787657E-018
         108  5.464785615312295E-019
         109  2.252057925047071E-019
         110  9.280361047174477E-020
         111  3.814829282233308E-020
         112  1.573403289806497E-020
         113  6.490057176320779E-021
         114  2.667787069737522E-021
         115  1.102560714288291E-021
         116  4.523812294268902E-022
         117  1.862496889885999E-022
         118  7.556250682445791E-023
         119  3.015157569150557E-023
         120  1.133996885396940E-023
         121  3.596758869266076E-024
         122  4.681248499970721E-025
         123  0.000000000000000E+000
  ------------ 
  k    rhog_core(k)
       1   0.12712E-02   0.00000E+00
       2  -0.12601E-02  -0.40760E-19
       3  -0.12601E-02  -0.29722E-19
       4  -0.12601E-02  -0.26384E-19
       5  -0.12601E-02  -0.93627E-19
       6  -0.12601E-02  -0.10172E-18
       7  -0.12601E-02  -0.10309E-18
       8   0.12491E-02   0.85114E-19
       9   0.12491E-02   0.61773E-19
      10   0.12491E-02   0.14022E-18
      11   0.12491E-02   0.14485E-18
      12   0.12491E-02   0.69798E-19
      13   0.12491E-02   0.12511E-18
      14   0.12491E-02   0.86175E-19
      15   0.12491E-02   0.20239E-18
      16   0.12491E-02   0.14523E-18
      17   0.12491E-02   0.11321E-18
      18   0.12491E-02   0.19918E-18
      19   0.12491E-02   0.20680E-18
      20  -0.12382E-02  -0.89313E-19
      21  -0.12382E-02  -0.18136E-18
      22  -0.12382E-02  -0.15023E-18
      23  -0.12382E-02  -0.24263E-18
      24  -0.12382E-02  -0.15868E-18
      25  -0.12382E-02  -0.25113E-18
      26  -0.12382E-02  -0.23035E-18
      27  -0.12382E-02  -0.30761E-18
      28   0.12274E-02   0.20389E-19
      29   0.12274E-02   0.29788E-19
      30   0.12274E-02  -0.41997E-20
      31   0.12274E-02  -0.83945E-20
      32   0.12274E-02   0.37715E-20
      33   0.12274E-02   0.11803E-19
      34  -0.12166E-02  -0.45571E-19
      35  -0.12166E-02  -0.59413E-19
      36  -0.12166E-02  -0.11697E-18
      37  -0.12166E-02  -0.11999E-18
      38  -0.12166E-02  -0.48744E-19
      39  -0.12166E-02  -0.65455E-19
      40  -0.12166E-02  -0.43032E-19
      41  -0.12166E-02  -0.53326E-19
      42  -0.12166E-02  -0.78183E-19
      43  -0.12166E-02  -0.12451E-18
      44  -0.12166E-02  -0.69296E-19
      45  -0.12166E-02  -0.39276E-19
      46  -0.12166E-02  -0.85259E-19
      47  -0.12166E-02  -0.10795E-18
      48  -0.12166E-02  -0.59576E-19
      49  -0.12166E-02  -0.10191E-18
      50  -0.12166E-02  -0.11587E-18
      51  -0.12166E-02  -0.14693E-18
      52  -0.12166E-02  -0.93525E-19
      53  -0.12166E-02  -0.10483E-18
      54  -0.12166E-02  -0.47545E-19
      55  -0.12166E-02  -0.56095E-19
      56  -0.12166E-02  -0.10984E-18
      57  -0.12166E-02  -0.11117E-18
      58   0.12060E-02   0.73474E-19
      59   0.12060E-02   0.14462E-18
      60   0.12060E-02   0.14905E-18
      61   0.12060E-02   0.21291E-18
      62   0.12060E-02   0.66905E-19
      63   0.12060E-02   0.14186E-18
      64   0.12060E-02   0.61963E-19
      65   0.12060E-02   0.92826E-19
      66   0.12060E-02   0.12254E-18
      67   0.12060E-02   0.14551E-18
      68   0.12060E-02   0.75151E-19
      69   0.12060E-02   0.15011E-18
      70   0.12060E-02   0.15937E-18
      71   0.12060E-02   0.22678E-18
      72   0.12060E-02   0.13090E-18
      73   0.12060E-02   0.17680E-18
      74   0.12060E-02   0.19801E-18
      75   0.12060E-02   0.20583E-18
      76   0.12060E-02   0.14786E-18
      77   0.12060E-02   0.20005E-18
      78   0.12060E-02   0.75865E-19
      79   0.12060E-02   0.14701E-18
      80   0.12060E-02   0.14656E-18
      81   0.12060E-02   0.21042E-18
      82   0.11851E-02   0.37895E-19
      83   0.11851E-02   0.21709E-20
      84   0.11851E-02   0.28876E-19
      85   0.11851E-02   0.23213E-19
      86   0.11851E-02   0.21138E-19
      87   0.11851E-02   0.43941E-19
      88   0.11851E-02   0.24195E-20
      89   0.11851E-02   0.21529E-19
      90   0.11851E-02   0.34104E-19
      91   0.11851E-02  -0.10100E-20
      92   0.11851E-02   0.25695E-19
      93   0.11851E-02   0.13500E-19
      94  -0.11748E-02   0.68422E-19
      95  -0.11748E-02  -0.71190E-19
      96  -0.11748E-02  -0.12980E-18
      97  -0.11748E-02  -0.38188E-19
      98  -0.11748E-02  -0.59850E-19
      99  -0.11748E-02  -0.56385E-19
     100  -0.11748E-02  -0.11957E-18
  970015   0.20992E-08   0.69903E-21
  970016   0.20992E-08   0.58070E-21
  970017   0.20992E-08   0.67419E-21
  970018   0.20992E-08   0.94757E-21
  970019   0.20992E-08   0.91079E-21
  970020  -0.23394E-09  -0.52888E-21
  970021  -0.15400E-08   0.14136E-20
  970022  -0.15400E-08   0.13907E-20
  970023  -0.15400E-08   0.12354E-20
  970024  -0.15400E-08   0.11703E-20
  970025  -0.23394E-09   0.89612E-21
  970026  -0.23394E-09   0.69105E-21
  970027  -0.15400E-08   0.12201E-20
  970028  -0.15400E-08   0.11585E-20
  970029  -0.15400E-08   0.14422E-20
  970030  -0.15400E-08   0.14187E-20
  970031  -0.23394E-09  -0.62988E-21
  970032  -0.39173E-08  -0.21166E-20
  970033  -0.39173E-08  -0.20340E-20
  970034   0.63306E-09  -0.99532E-21
  970035   0.63306E-09  -0.10378E-20
  970036   0.63306E-09  -0.74309E-21
  970037   0.63306E-09  -0.75512E-21
  970038  -0.39173E-08  -0.15267E-20
  970039  -0.39173E-08  -0.15141E-20
  970040  -0.39173E-08  -0.14873E-20
  970041  -0.39173E-08  -0.14725E-20
  970042   0.63306E-09  -0.74832E-21
  970043   0.63306E-09  -0.75742E-21
  970044   0.63306E-09  -0.98069E-21
  970045   0.63306E-09  -0.10232E-20
  970046  -0.39173E-08  -0.21436E-20
  970047  -0.39173E-08  -0.20594E-20
  970048  -0.60631E-08   0.31198E-20
  970049  -0.60631E-08   0.32183E-20
  970050  -0.60631E-08   0.33870E-20
  970051  -0.60631E-08   0.32670E-20
  970052  -0.54640E-08  -0.51585E-21
  970053  -0.54640E-08  -0.45785E-21
  970054  -0.57894E-08  -0.21455E-20
  970055  -0.57894E-08  -0.21426E-20
  970056  -0.57894E-08  -0.21553E-20
  970057  -0.57894E-08  -0.21671E-20
  970058  -0.54640E-08  -0.12534E-20
  970059  -0.54640E-08  -0.11423E-20
  970060  -0.54640E-08  -0.12155E-20
  970061  -0.54640E-08  -0.11053E-20
  970062  -0.57894E-08  -0.21514E-20
  970063  -0.57894E-08  -0.21631E-20
  970064  -0.57894E-08  -0.21784E-20
  970065  -0.57894E-08  -0.21746E-20
  970066  -0.54640E-08  -0.42040E-21
  970067  -0.54640E-08  -0.36243E-21
  970068  -0.38502E-08   0.67506E-21
  970069  -0.38502E-08   0.71169E-21
  970070  -0.38502E-08  -0.17200E-21
  970071  -0.38502E-08  -0.24315E-21
  970072  -0.38502E-08  -0.16864E-21
  970073  -0.38502E-08  -0.24083E-21
  970074  -0.38502E-08   0.60015E-21
  970075  -0.38502E-08   0.63603E-21
  970076  -0.24809E-08   0.11112E-20
  970077  -0.24809E-08   0.11258E-20
  970078  -0.24809E-08   0.13646E-20
  970079  -0.24809E-08   0.13483E-20
  970080  -0.24809E-08   0.13837E-20
  970081  -0.24809E-08   0.13669E-20
  970082  -0.24809E-08   0.10828E-20
  970083  -0.24809E-08   0.10995E-20
  970084   0.46680E-08  -0.31783E-20
  970085   0.46036E-08  -0.23238E-20
  970086   0.46036E-08  -0.23075E-20
  970087   0.46036E-08  -0.20242E-20
  970088   0.46036E-08  -0.19742E-20
  970089   0.46680E-08  -0.27034E-20
  970090   0.46680E-08  -0.25952E-20
  970091   0.46036E-08  -0.20147E-20
  970092   0.46036E-08  -0.19644E-20
  970093   0.46036E-08  -0.22565E-20
  970094   0.46036E-08  -0.22404E-20
  970095   0.46680E-08  -0.30822E-20
  970096   0.55828E-08  -0.46479E-21
  970097   0.55828E-08  -0.46592E-21
  970098   0.59909E-08  -0.61612E-21
  970099   0.59909E-08  -0.61733E-21
  970100   0.59909E-08  -0.92046E-21
  970101   0.59909E-08  -0.95771E-21
  970102   0.55828E-08  -0.11105E-20
  970103   0.55828E-08  -0.11091E-20
  970104   0.55828E-08  -0.11059E-20
  970105   0.55828E-08  -0.11045E-20
  970106   0.59909E-08  -0.92562E-21
  970107   0.59909E-08  -0.96361E-21
  970108   0.59909E-08  -0.66120E-21
  970109   0.59909E-08  -0.66241E-21
  970110   0.55828E-08  -0.45884E-21
  970111   0.55828E-08  -0.45998E-21
  970112   0.29240E-08   0.57354E-21
  970113   0.29240E-08   0.60467E-21
  970114   0.29240E-08   0.59941E-21
  970115   0.29240E-08   0.56688E-21
  ------------ 

     Initial potential from superposition of free atoms

     starting charge    5.99997, renormalised to    6.00000

     negative rho (up, down):  6.001E-07 5.882E-07
     Starting wfc are    4 randomized atomic wfcs +   21 random wfc

     total cpu time spent up to now is       86.2 secs

     per-process dynamical memory:   945.9 Mb

     Self-consistent Calculation

     iteration #  1     ecut=   150.00 Ry     beta=0.70
     Davidson diagonalization with overlap
     ethr =  1.00E-02,  avg # of iterations =  8.8

     Threshold (ethr) on eigenvalues was too large:
     Diagonalizing with lowered threshold

     Davidson diagonalization with overlap
     ethr =  1.10E-04,  avg # of iterations =  8.9

     negative rho (up, down):  2.750E-07 5.635E-07

     total cpu time spent up to now is      877.3 secs

     total energy              =     -30.96253619 Ry
     Harris-Foulkes estimate   =     -30.94085176 Ry
     estimated scf accuracy    <       0.00659442 Ry

     total magnetization       =     1.43 Bohr mag/cell
     absolute magnetization    =     1.43 Bohr mag/cell

     iteration #  2     ecut=   150.00 Ry     beta=0.70
     Davidson diagonalization with overlap
     ethr =  1.10E-04,  avg # of iterations =  2.2

     total cpu time spent up to now is     1148.1 secs

     total energy              =     -30.95572260 Ry
     Harris-Foulkes estimate   =     -30.97643485 Ry
     estimated scf accuracy    <       0.00372017 Ry

     total magnetization       =     2.00 Bohr mag/cell
     absolute magnetization    =     2.00 Bohr mag/cell

     iteration #  3     ecut=   150.00 Ry     beta=0.70
     Davidson diagonalization with overlap
     ethr =  6.20E-05,  avg # of iterations =  4.5

     total cpu time spent up to now is     1356.6 secs

     total energy              =     -30.98577290 Ry
     Harris-Foulkes estimate   =     -30.95812930 Ry
     estimated scf accuracy    <       0.00720339 Ry

     total magnetization       =     2.00 Bohr mag/cell
     absolute magnetization    =     2.00 Bohr mag/cell

     iteration #  4     ecut=   150.00 Ry     beta=0.70
     Davidson diagonalization with overlap
     ethr =  6.20E-05,  avg # of iterations =  3.5

     total cpu time spent up to now is     1545.7 secs

     total energy              =     -30.98777694 Ry
     Harris-Foulkes estimate   =     -30.98718125 Ry
     estimated scf accuracy    <       0.00076698 Ry

     total magnetization       =     2.00 Bohr mag/cell
     absolute magnetization    =     2.00 Bohr mag/cell

     iteration #  5     ecut=   150.00 Ry     beta=0.70
     Davidson diagonalization with overlap
     ethr =  1.28E-05,  avg # of iterations =  2.2

     total cpu time spent up to now is     1692.8 secs

     total energy              =     -30.98803484 Ry
     Harris-Foulkes estimate   =     -30.98778010 Ry
     estimated scf accuracy    <       0.00059870 Ry

     total magnetization       =     2.00 Bohr mag/cell
     absolute magnetization    =     2.00 Bohr mag/cell

     iteration #  6     ecut=   150.00 Ry     beta=0.70
     Davidson diagonalization with overlap

     Maximum CPU time exceeded

     max_seconds     =    1700.00
     elapsed seconds =    1702.92
     Calculation stopped in k-point loop, point #     1
     Calculation stopped in scf loop at iteration #     5

     Writing output data file S.save
 
     init_run     :     56.74s CPU     85.12s WALL (       1 calls)
     electrons    :   1530.34s CPU   1618.46s WALL (       1 calls)

     Called by init_run:
     wfcinit      :     44.30s CPU     45.14s WALL (       1 calls)
     potinit      :      0.86s CPU      1.00s WALL (       1 calls)

     Called by electrons:
     c_bands      :   1006.10s CPU   1014.21s WALL (       7 calls)
     sum_band     :    142.64s CPU    222.49s WALL (       6 calls)
     v_of_rho     :      2.10s CPU      2.16s WALL (       6 calls)
     mix_rho      :    379.64s CPU    380.44s WALL (       6 calls)

     Called by c_bands:
     init_us_2    :      1.17s CPU      1.19s WALL (     105 calls)
     cegterg      :   1004.02s CPU   1010.68s WALL (      49 calls)

     Called by sum_band:

     Called by *egterg:
     h_psi        :    998.19s CPU    998.44s WALL (     299 calls)
     g_psi        :      2.34s CPU      2.36s WALL (     242 calls)
     cdiaghg      :      0.30s CPU      0.44s WALL (     283 calls)

     Called by h_psi:
     h_psi:pot    :    995.53s CPU    995.64s WALL (     299 calls)
     h_psi:calbec :      2.48s CPU      2.53s WALL (     299 calls)
     vloc_psi     :    991.34s CPU    991.39s WALL (     299 calls)
     add_vuspsi   :      1.72s CPU      1.71s WALL (     299 calls)

     General routines
     calbec       :      2.47s CPU      2.53s WALL (     299 calls)
     fft          :      4.73s CPU      4.84s WALL (      46 calls)
     ffts         :    262.20s CPU    262.24s WALL (    2541 calls)
     fftw         :   1085.16s CPU   1085.24s WALL (   10594 calls)
     davcio       :      0.00s CPU      1.08s WALL (      18 calls)
 
 
     PWSCF        : 26m27.25s CPU    28m25.59s WALL

 
   This run was terminated on:  20:38:50  26Jul2018            

=------------------------------------------------------------------------------=
   JOB DONE.
=------------------------------------------------------------------------------=
