
     Program PWSCF v.6.2 starts on 27Jul2018 at 21:27:13 

     This program is part of the open-source Quantum ESPRESSO suite
     for quantum simulation of materials; please cite
         "P. Giannozzi et al., J. Phys.:Condens. Matter 21 395502 (2009);
         "P. Giannozzi et al., J. Phys.:Condens. Matter 29 465901 (2017);
          URL http://www.quantum-espresso.org", 
     in publications or presentations arising from this work. More details at
     http://www.quantum-espresso.org/quote

     Parallel version (MPI & OpenMP), running on      64 processor cores
     Number of MPI processes:                32
     Threads/MPI process:                     2

     MPI processes distributed on     1 nodes
     R & G space division:  proc/nbgrp/npool/nimage =      32
     Waiting for input...
     Reading input from standard input

     Current dimensions of program PWSCF are:
     Max number of different atomic species (ntypx) = 20
     Max number of k-points (npk) =  40000
     Max angular momentum in pseudopotentials (lmaxx) =  3

     Subspace diagonalization in iterative solution of the eigenvalue problem:
     one sub-group per band group will be used
     scalapack distributed-memory algorithm (size of sub-group:  4*  4 procs)

 
     Parallelization info
     --------------------
     sticks:   dense  smooth     PW     G-vecs:    dense   smooth      PW
     Min         102     102     26                25578    25578    3518
     Max         103     103     27                25602    25602    3561
     Sum        3265    3265    863               819001   819001  113521
 


     bravais-lattice index     =            0
     lattice parameter (alat)  =       6.2737  a.u.
     unit-cell volume          =    2142.8622 (a.u.)^3
     number of atoms/cell      =            4
     number of atomic types    =            1
     number of electrons       =        20.00
     number of Kohn-Sham states=           30
     kinetic-energy cutoff     =     200.0000  Ry
     charge density cutoff     =     800.0000  Ry
     convergence threshold     =      1.0E-09
     mixing beta               =       0.7000
     number of iterations used =            8  plain     mixing
     Exchange-correlation      = PZ ( 1  1  0  0 0 0)

     celldm(1)=   6.273702  celldm(2)=   0.000000  celldm(3)=   0.000000
     celldm(4)=   0.000000  celldm(5)=   0.000000  celldm(6)=   0.000000

     crystal axes: (cart. coord. in units of alat)
               a(1) = (   1.000000   0.000000   0.000000 )  
               a(2) = (   0.000000   1.299858   0.000000 )  
               a(3) = (   0.000000   0.000000   6.676157 )  

     reciprocal axes: (cart. coord. in units 2 pi/alat)
               b(1) = (  1.000000  0.000000  0.000000 )  
               b(2) = (  0.000000  0.769315  0.000000 )  
               b(3) = (  0.000000  0.000000  0.149787 )  


     PseudoPot. # 1 for P  read from file:
     ./P.UPF
     MD5 check sum: b88c35a6f4b891eaa010a3085e4716c8
     Pseudo is Norm-conserving + core correction, Zval =  5.0
     Generated using "atomic" code by A. Dal Corso v.6.0 svn rev. 13079
     Using radial grid of 1147 points,  2 beta functions with: 
                l(1) =   0
                l(2) =   1

     atomic species   valence    mass     pseudopotential
       P               5.00    30.97400     P ( 1.00)

      2 Sym. Ops. (no inversion) found
          (note:  2 additional sym.ops. were found but ignored
           their fractional translations are incommensurate with FFT grid)

                                    s                        frac. trans.

      isym =  1     identity                                     

 cryst.   s( 1) = (     1          0          0      )
                  (     0          1          0      )
                  (     0          0          1      )

 cart.    s( 1) = (  1.0000000  0.0000000  0.0000000 )
                  (  0.0000000  1.0000000  0.0000000 )
                  (  0.0000000  0.0000000  1.0000000 )


      isym =  2     inv. 180 deg rotation - cart. axis [1,0,0]   

 cryst.   s( 2) = (    -1          0          0      )
                  (     0          1          0      )
                  (     0          0          1      )

 cart.    s( 2) = ( -1.0000000  0.0000000  0.0000000 )
                  (  0.0000000  1.0000000  0.0000000 )
                  (  0.0000000  0.0000000  1.0000000 )


   Cartesian axes

     site n.     atom                  positions (alat units)
         1          P    tau(   1) = (   0.5000000   0.5432110   1.2355230  )
         2          P    tau(   2) = (   0.5000000   0.7566476   1.8874023  )
         3          P    tau(   3) = (   0.0000000   1.1931401   1.8874023  )
         4          P    tau(   4) = (   0.0000000   0.1067183   1.2355230  )

   Crystallographic axes

     site n.     atom                  positions (cryst. coord.)
         1          P    tau(   1) = (  0.5000000  0.4179001  0.1850650  )
         2          P    tau(   2) = (  0.5000000  0.5821000  0.2827079  )
         3          P    tau(   3) = (  0.0000000  0.9179000  0.2827079  )
         4          P    tau(   4) = (  0.0000000  0.0821000  0.1850650  )

     number of k points=    36  gaussian smearing, width (Ry)=  0.0010
                       cart. coord. in units 2pi/alat
        k(    1) = (   0.5000000   0.0000000   0.0000000), wk =   0.0555556
        k(    2) = (   0.4750000   0.0000000   0.0000000), wk =   0.0555556
        k(    3) = (   0.4500000   0.0000000   0.0000000), wk =   0.0555556
        k(    4) = (   0.4250000   0.0000000   0.0000000), wk =   0.0555556
        k(    5) = (   0.4000000   0.0000000   0.0000000), wk =   0.0555556
        k(    6) = (   0.3750000   0.0000000   0.0000000), wk =   0.0555556
        k(    7) = (   0.3500000   0.0000000   0.0000000), wk =   0.0555556
        k(    8) = (   0.3250000   0.0000000   0.0000000), wk =   0.0555556
        k(    9) = (   0.3000000   0.0000000   0.0000000), wk =   0.0555556
        k(   10) = (   0.2750000   0.0000000   0.0000000), wk =   0.0555556
        k(   11) = (   0.2500000   0.0000000   0.0000000), wk =   0.0555556
        k(   12) = (   0.2250000   0.0000000   0.0000000), wk =   0.0555556
        k(   13) = (   0.2000000   0.0000000   0.0000000), wk =   0.0555556
        k(   14) = (   0.1750000   0.0000000   0.0000000), wk =   0.0555556
        k(   15) = (   0.1500000   0.0000000   0.0000000), wk =   0.0555556
        k(   16) = (   0.1250000   0.0000000   0.0000000), wk =   0.0555556
        k(   17) = (   0.1000000   0.0000000   0.0000000), wk =   0.0555556
        k(   18) = (   0.0750000   0.0000000   0.0000000), wk =   0.0555556
        k(   19) = (   0.0500000   0.0000000   0.0000000), wk =   0.0555556
        k(   20) = (   0.0250000   0.0000000   0.0000000), wk =   0.0555556
        k(   21) = (   0.0000000   0.0000000   0.0000000), wk =   0.0555556
        k(   22) = (   0.0000000   0.0256436   0.0000000), wk =   0.0555556
        k(   23) = (   0.0000000   0.0512879   0.0000000), wk =   0.0555556
        k(   24) = (   0.0000000   0.0769315   0.0000000), wk =   0.0555556
        k(   25) = (   0.0000000   0.1025750   0.0000000), wk =   0.0555556
        k(   26) = (   0.0000000   0.1282193   0.0000000), wk =   0.0555556
        k(   27) = (   0.0000000   0.1538629   0.0000000), wk =   0.0555556
        k(   28) = (   0.0000000   0.1795065   0.0000000), wk =   0.0555556
        k(   29) = (   0.0000000   0.2051508   0.0000000), wk =   0.0555556
        k(   30) = (   0.0000000   0.2307944   0.0000000), wk =   0.0555556
        k(   31) = (   0.0000000   0.2564379   0.0000000), wk =   0.0555556
        k(   32) = (   0.0000000   0.2820823   0.0000000), wk =   0.0555556
        k(   33) = (   0.0000000   0.3077258   0.0000000), wk =   0.0555556
        k(   34) = (   0.0000000   0.3333694   0.0000000), wk =   0.0555556
        k(   35) = (   0.0000000   0.3590137   0.0000000), wk =   0.0555556
        k(   36) = (   0.0000000   0.3846573   0.0000000), wk =   0.0555556

                       cryst. coord.
        k(    1) = (   0.5000000   0.0000000   0.0000000), wk =   0.0555556
        k(    2) = (   0.4750000   0.0000000   0.0000000), wk =   0.0555556
        k(    3) = (   0.4500000   0.0000000   0.0000000), wk =   0.0555556
        k(    4) = (   0.4250000   0.0000000   0.0000000), wk =   0.0555556
        k(    5) = (   0.4000000   0.0000000   0.0000000), wk =   0.0555556
        k(    6) = (   0.3750000   0.0000000   0.0000000), wk =   0.0555556
        k(    7) = (   0.3500000   0.0000000   0.0000000), wk =   0.0555556
        k(    8) = (   0.3250000   0.0000000   0.0000000), wk =   0.0555556
        k(    9) = (   0.3000000   0.0000000   0.0000000), wk =   0.0555556
        k(   10) = (   0.2750000   0.0000000   0.0000000), wk =   0.0555556
        k(   11) = (   0.2500000   0.0000000   0.0000000), wk =   0.0555556
        k(   12) = (   0.2250000   0.0000000   0.0000000), wk =   0.0555556
        k(   13) = (   0.2000000   0.0000000   0.0000000), wk =   0.0555556
        k(   14) = (   0.1750000   0.0000000   0.0000000), wk =   0.0555556
        k(   15) = (   0.1500000   0.0000000   0.0000000), wk =   0.0555556
        k(   16) = (   0.1250000   0.0000000   0.0000000), wk =   0.0555556
        k(   17) = (   0.1000000   0.0000000   0.0000000), wk =   0.0555556
        k(   18) = (   0.0750000   0.0000000   0.0000000), wk =   0.0555556
        k(   19) = (   0.0500000   0.0000000   0.0000000), wk =   0.0555556
        k(   20) = (   0.0250000   0.0000000   0.0000000), wk =   0.0555556
        k(   21) = (   0.0000000   0.0000000   0.0000000), wk =   0.0555556
        k(   22) = (   0.0000000   0.0333330   0.0000000), wk =   0.0555556
        k(   23) = (   0.0000000   0.0666670   0.0000000), wk =   0.0555556
        k(   24) = (   0.0000000   0.1000000   0.0000000), wk =   0.0555556
        k(   25) = (   0.0000000   0.1333330   0.0000000), wk =   0.0555556
        k(   26) = (   0.0000000   0.1666670   0.0000000), wk =   0.0555556
        k(   27) = (   0.0000000   0.2000000   0.0000000), wk =   0.0555556
        k(   28) = (   0.0000000   0.2333330   0.0000000), wk =   0.0555556
        k(   29) = (   0.0000000   0.2666670   0.0000000), wk =   0.0555556
        k(   30) = (   0.0000000   0.3000000   0.0000000), wk =   0.0555556
        k(   31) = (   0.0000000   0.3333330   0.0000000), wk =   0.0555556
        k(   32) = (   0.0000000   0.3666670   0.0000000), wk =   0.0555556
        k(   33) = (   0.0000000   0.4000000   0.0000000), wk =   0.0555556
        k(   34) = (   0.0000000   0.4333330   0.0000000), wk =   0.0555556
        k(   35) = (   0.0000000   0.4666670   0.0000000), wk =   0.0555556
        k(   36) = (   0.0000000   0.5000000   0.0000000), wk =   0.0555556

     Dense  grid:   819001 G-vectors     FFT dimensions: (  60,  75, 384)

     Dynamical RAM for                 wfc:       1.46 MB

     Dynamical RAM for     wfc (w. buffer):      54.17 MB

     Dynamical RAM for           str. fact:       0.39 MB

     Dynamical RAM for           local pot:       0.00 MB

     Dynamical RAM for          nlocal pot:       0.78 MB

     Dynamical RAM for                qrad:       0.19 MB

     Dynamical RAM for          rho,v,vnew:       2.41 MB

     Dynamical RAM for               rhoin:       0.80 MB

     Dynamical RAM for            rho*nmix:       6.25 MB

     Dynamical RAM for           G-vectors:       1.66 MB

     Dynamical RAM for          h,s,v(r/c):       0.04 MB

     Dynamical RAM for          <psi|beta>:       0.01 MB

     Dynamical RAM for                 psi:       5.86 MB

     Dynamical RAM for                hpsi:       5.86 MB

     Dynamical RAM for      wfcinit/wfcrot:       2.95 MB

     Estimated static dynamical RAM per process >      69.49 MB

     Estimated max dynamical RAM per process >      81.25 MB

     Estimated total dynamical RAM >       2.54 GB

     Check: negative/imaginary core charge=   -0.000003    0.000000

     Initial potential from superposition of free atoms

     starting charge   19.99943, renormalised to   20.00000

     negative rho (up, down):  1.362E-05 0.000E+00
     Starting wfc are   16 randomized atomic wfcs +   14 random wfc

     total cpu time spent up to now is        3.9 secs

     Self-consistent Calculation

     iteration #  1     ecut=   200.00 Ry     beta= 0.70
     Davidson diagonalization with overlap
     ethr =  1.00E-02,  avg # of iterations =  8.5

     Threshold (ethr) on eigenvalues was too large:
     Diagonalizing with lowered threshold

     Davidson diagonalization with overlap
     ethr =  5.12E-04,  avg # of iterations =  1.3

     negative rho (up, down):  1.874E-06 0.000E+00

     total cpu time spent up to now is       33.3 secs

     total energy              =     -61.95494402 Ry
     Harris-Foulkes estimate   =     -61.99571634 Ry
     estimated scf accuracy    <       0.10116668 Ry

     iteration #  2     ecut=   200.00 Ry     beta= 0.70
     Davidson diagonalization with overlap
     ethr =  5.06E-04,  avg # of iterations =  3.2

     negative rho (up, down):  2.254E-07 0.000E+00

     total cpu time spent up to now is       42.3 secs

     total energy              =     -61.95713474 Ry
     Harris-Foulkes estimate   =     -61.96933579 Ry
     estimated scf accuracy    <       0.01884262 Ry

     iteration #  3     ecut=   200.00 Ry     beta= 0.70
     Davidson diagonalization with overlap
     ethr =  9.42E-05,  avg # of iterations =  3.2

     total cpu time spent up to now is       52.2 secs

     total energy              =     -61.96113069 Ry
     Harris-Foulkes estimate   =     -61.96836991 Ry
     estimated scf accuracy    <       0.01551868 Ry

     iteration #  4     ecut=   200.00 Ry     beta= 0.70
     Davidson diagonalization with overlap
     ethr =  7.76E-05,  avg # of iterations =  2.1

     total cpu time spent up to now is       60.7 secs

     total energy              =     -61.96424130 Ry
     Harris-Foulkes estimate   =     -61.96428658 Ry
     estimated scf accuracy    <       0.00009955 Ry

     iteration #  5     ecut=   200.00 Ry     beta= 0.70
     Davidson diagonalization with overlap
     ethr =  4.98E-07,  avg # of iterations =  5.5

     total cpu time spent up to now is       72.6 secs

     total energy              =     -61.96427920 Ry
     Harris-Foulkes estimate   =     -61.96428154 Ry
     estimated scf accuracy    <       0.00000458 Ry

     iteration #  6     ecut=   200.00 Ry     beta= 0.70
     Davidson diagonalization with overlap
     ethr =  2.29E-08,  avg # of iterations =  2.0

     total cpu time spent up to now is       80.8 secs

     total energy              =     -61.96427862 Ry
     Harris-Foulkes estimate   =     -61.96428136 Ry
     estimated scf accuracy    <       0.00000859 Ry

     iteration #  7     ecut=   200.00 Ry     beta= 0.70
     Davidson diagonalization with overlap
     ethr =  2.29E-08,  avg # of iterations =  1.0

     total cpu time spent up to now is       88.3 secs

     total energy              =     -61.96428012 Ry
     Harris-Foulkes estimate   =     -61.96428055 Ry
     estimated scf accuracy    <       0.00000184 Ry

     iteration #  8     ecut=   200.00 Ry     beta= 0.70
     Davidson diagonalization with overlap
     ethr =  9.20E-09,  avg # of iterations =  1.0

     total cpu time spent up to now is       96.1 secs

     total energy              =     -61.96428032 Ry
     Harris-Foulkes estimate   =     -61.96428032 Ry
     estimated scf accuracy    <          3.3E-09 Ry

     iteration #  9     ecut=   200.00 Ry     beta= 0.70
     Davidson diagonalization with overlap
     ethr =  1.66E-11,  avg # of iterations =  2.9

     total cpu time spent up to now is      105.5 secs

     End of self-consistent calculation

          k = 0.5000 0.0000 0.0000 (102536 PWs)   bands (ev):

   -14.4616 -14.4615 -11.8096 -11.8096  -6.7759  -6.7759  -4.8054  -4.8053
    -4.2521  -4.2521  -0.8748  -0.8748  -0.3133  -0.3133   1.0210   1.0210
     4.5057   4.5057   5.4355   5.4356   5.7578   5.7579   6.2623   6.2624
     6.4944   6.4945   7.6187   7.6188   7.7445   7.7447

     occupation numbers 
     1.0000   1.0000   1.0000   1.0000   1.0000   1.0000   1.0000   1.0000
     1.0000   1.0000   0.0000   0.0000   0.0000   0.0000   0.0000   0.0000
     0.0000   0.0000   0.0000   0.0000   0.0000   0.0000   0.0000   0.0000
     0.0000   0.0000   0.0000   0.0000   0.0000   0.0000

          k = 0.4750 0.0000 0.0000 (102514 PWs)   bands (ev):

   -14.7266 -14.1877 -12.0965 -11.5101  -6.8442  -6.7357  -4.9022  -4.7356
    -4.3099  -4.1532  -0.8938  -0.8052  -0.5308  -0.0767   0.7826   1.2691
     4.4529   4.5067   5.1163   5.4927   5.7702   6.0467   6.0637   6.1709
     6.5292   6.8325   7.3439   7.4841   7.8976   7.9848

     occupation numbers 
     1.0000   1.0000   1.0000   1.0000   1.0000   1.0000   1.0000   1.0000
     1.0000   1.0000   0.0000   0.0000   0.0000   0.0000   0.0000   0.0000
     0.0000   0.0000   0.0000   0.0000   0.0000   0.0000   0.0000   0.0000
     0.0000   0.0000   0.0000   0.0000   0.0000   0.0000

          k = 0.4500 0.0000 0.0000 (102510 PWs)   bands (ev):

   -14.9817 -13.9063 -12.3703 -11.1983  -6.9319  -6.7295  -5.0209  -4.6960
    -4.3233  -4.0204  -0.8575  -0.7254  -0.6940   0.1756   0.5585   1.5235
     4.3802   4.4304   4.8128   5.2410   5.8628   5.9596   6.1196   6.3572
     6.8332   7.0953   7.1833   7.2184   8.1240   8.1821

     occupation numbers 
     1.0000   1.0000   1.0000   1.0000   1.0000   1.0000   1.0000   1.0000
     1.0000   1.0000   0.0000   0.0000   0.0000   0.0000   0.0000   0.0000
     0.0000   0.0000   0.0000   0.0000   0.0000   0.0000   0.0000   0.0000
     0.0000   0.0000   0.0000   0.0000   0.0000   0.0000

          k = 0.4250 0.0000 0.0000 (102494 PWs)   bands (ev):

   -15.2261 -13.6190 -12.6306 -10.8751  -7.0294  -6.7585  -5.1555  -4.6867
    -4.2949  -3.8620  -0.8926  -0.7645  -0.5562   0.3584   0.4404   1.7813
     4.2827   4.3107   4.5252   4.9919   5.5707   5.9315   6.4826   6.6705
     6.8976   6.9560   7.1414   7.5415   8.1027   8.3177

     occupation numbers 
     1.0000   1.0000   1.0000   1.0000   1.0000   1.0000   1.0000   1.0000
     1.0000   1.0000   0.0000   0.0000   0.0000   0.0000   0.0000   0.0000
     0.0000   0.0000   0.0000   0.0000   0.0000   0.0000   0.0000   0.0000
     0.0000   0.0000   0.0000   0.0000   0.0000   0.0000

          k = 0.4000 0.0000 0.0000 (102464 PWs)   bands (ev):

   -15.4590 -13.3279 -12.8772 -10.5410  -7.1282  -6.8184  -5.3004  -4.7048
    -4.2338  -3.6860  -1.0265  -0.6173  -0.4265   0.2120   0.7149   2.0388
     4.0924   4.2538   4.2595   4.7449   5.2948   5.9073   6.7017   6.7903
     6.8562   6.8734   7.3692   7.8896   7.9244   8.4018

     occupation numbers 
     1.0000   1.0000   1.0000   1.0000   1.0000   1.0000   1.0000   1.0000
     1.0000   1.0000   0.0000   0.0000   0.0000   0.0000   0.0000   0.0000
     0.0000   0.0000   0.0000   0.0000   0.0000   0.0000   0.0000   0.0000
     0.0000   0.0000   0.0000   0.0000   0.0000   0.0000

          k = 0.3750 0.0000 0.0000 (102414 PWs)   bands (ev):

   -15.6797 -13.1097 -13.0355 -10.1972  -7.2205  -6.9023  -5.4503  -4.7449
    -4.1533  -3.4996  -1.1206  -0.4207  -0.3891   0.1981   0.9960   2.2921
     3.8850   3.9987   4.2371   4.5047   5.0354   5.8205   6.4585   6.5887
     6.7994   7.2300   7.6120   8.1217   8.1552   8.2491

     occupation numbers 
     1.0000   1.0000   1.0000   1.0000   1.0000   1.0000   1.0000   1.0000
     1.0000   1.0000   0.0000   0.0000   0.0000   0.0000   0.0000   0.0000
     0.0000   0.0000   0.0000   0.0000   0.0000   0.0000   0.0000   0.0000
     0.0000   0.0000   0.0000   0.0000   0.0000   0.0000

          k = 0.3500 0.0000 0.0000 (102380 PWs)   bands (ev):

   -15.8879 -13.3281 -12.7449  -9.8448  -7.2997  -7.0022  -5.6012  -4.8004
    -4.0685  -3.3092  -1.1675  -0.4815  -0.1808   0.3499   1.2805   2.5357
     3.6755   3.7600   4.2511   4.2748   4.7926   5.6734   6.0095   6.2279
     6.8822   7.5195   7.9792   8.0510   8.1015   8.2629

     occupation numbers 
     1.0000   1.0000   1.0000   1.0000   1.0000   1.0000   1.0000   1.0000
     1.0000   1.0000   0.0000   0.0000   0.0000   0.0000   0.0000   0.0000
     0.0000   0.0000   0.0000   0.0000   0.0000   0.0000   0.0000   0.0000
     0.0000   0.0000   0.0000   0.0000   0.0000   0.0000

          k = 0.3250 0.0000 0.0000 (102394 PWs)   bands (ev):

   -16.0830 -13.5320 -12.4598  -9.4856  -7.3595  -7.1112  -5.7498  -4.8646
    -3.9933  -3.1204  -1.1603  -0.6267   0.0958   0.5866   1.5652   2.7623
     3.4718   3.5379   4.0576   4.3068   4.5664   5.3704   5.4998   6.0111
     6.9577   7.2263   7.8586   8.1488   8.1749   8.3100

     occupation numbers 
     1.0000   1.0000   1.0000   1.0000   1.0000   1.0000   1.0000   1.0000
     1.0000   1.0000   0.0000   0.0000   0.0000   0.0000   0.0000   0.0000
     0.0000   0.0000   0.0000   0.0000   0.0000   0.0000   0.0000   0.0000
     0.0000   0.0000   0.0000   0.0000   0.0000   0.0000

          k = 0.3000 0.0000 0.0000 (102376 PWs)   bands (ev):

   -16.2648 -13.7214 -12.1848  -9.1219  -7.3940  -7.2238  -5.8935  -4.9310
    -3.9379  -2.9383  -1.0950  -0.7810   0.4026   0.8609   1.8465   2.9616
     3.2781   3.3326   3.8546   4.3570   4.3984   4.7338   5.3213   5.8089
     6.6565   6.9618   7.6745   8.1214   8.2860   8.5111

     occupation numbers 
     1.0000   1.0000   1.0000   1.0000   1.0000   1.0000   1.0000   1.0000
     1.0000   1.0000   0.0000   0.0000   0.0000   0.0000   0.0000   0.0000
     0.0000   0.0000   0.0000   0.0000   0.0000   0.0000   0.0000   0.0000
     0.0000   0.0000   0.0000   0.0000   0.0000   0.0000

          k = 0.2750 0.0000 0.0000 (102398 PWs)   bands (ev):

   -16.4329 -13.8961 -11.9249  -8.7566  -7.3977  -7.3359  -6.0303  -4.9932
    -3.9070  -2.7670  -0.9716  -0.9311   0.7327   1.1559   2.1176   3.0967
     3.1185   3.1444   3.6665   4.0633   4.1645   4.5874   5.1480   5.6215
     6.0959   6.8852   7.5007   8.0127   8.3328   8.6053

     occupation numbers 
     1.0000   1.0000   1.0000   1.0000   1.0000   1.0000   1.0000   1.0000
     1.0000   1.0000   0.0000   0.0000   0.0000   0.0000   0.0000   0.0000
     0.0000   0.0000   0.0000   0.0000   0.0000   0.0000   0.0000   0.0000
     0.0000   0.0000   0.0000   0.0000   0.0000   0.0000

          k = 0.2500 0.0000 0.0000 (102382 PWs)   bands (ev):

   -16.5870 -14.0560 -11.6855  -8.3943  -7.4443  -7.3655  -6.1586  -5.0449
    -3.9000  -2.6103  -1.0722  -0.7951   1.0778   1.4631   2.3527   2.9292
     2.9741   3.2095   3.4821   3.4939   3.9890   4.7853   4.9846   5.4494
     5.5967   6.7552   7.3386   7.8407   8.4048   8.8567

     occupation numbers 
     1.0000   1.0000   1.0000   1.0000   1.0000   1.0000   1.0000   1.0000
     1.0000   1.0000   0.0000   0.0000   0.0000   0.0000   0.0000   0.0000
     0.0000   0.0000   0.0000   0.0000   0.0000   0.0000   0.0000   0.0000
     0.0000   0.0000   0.0000   0.0000   0.0000   0.0000

          k = 0.2250 0.0000 0.0000 (102344 PWs)   bands (ev):

   -16.7271 -14.2009 -11.4716  -8.0410  -7.5467  -7.2935  -6.2772  -5.0793
    -3.9126  -2.4707  -1.2021  -0.5738   1.4234   1.7750   2.3884   2.7762
     2.8232   3.1159   3.2057   3.3371   3.8308   4.8335   5.0352   5.2038
     5.2926   6.5957   7.1887   7.6600   8.5115   9.1767

     occupation numbers 
     1.0000   1.0000   1.0000   1.0000   1.0000   1.0000   1.0000   1.0000
     1.0000   1.0000   0.0000   0.0000   0.0000   0.0000   0.0000   0.0000
     0.0000   0.0000   0.0000   0.0000   0.0000   0.0000   0.0000   0.0000
     0.0000   0.0000   0.0000   0.0000   0.0000   0.0000

          k = 0.2000 0.0000 0.0000 (102360 PWs)   bands (ev):

   -16.8528 -14.3308 -11.2869  -7.7052  -7.6414  -7.1798  -6.3852  -5.0884
    -3.9389  -2.3500  -1.3197  -0.3176   1.7345   1.9865   2.0799   2.6385
     2.6983   3.1050   3.1964   3.2166   3.6902   4.6958   4.9542   5.1513
     5.3264   6.4184   7.0516   7.4862   8.6556   9.5191

     occupation numbers 
     1.0000   1.0000   1.0000   1.0000   1.0000   1.0000   1.0000   1.0000
     1.0000   1.0000   0.0000   0.0000   0.0000   0.0000   0.0000   0.0000
     0.0000   0.0000   0.0000   0.0000   0.0000   0.0000   0.0000   0.0000
     0.0000   0.0000   0.0000   0.0000   0.0000   0.0000

          k = 0.1750 0.0000 0.0000 (102336 PWs)   bands (ev):

   -16.9640 -14.4456 -11.1335  -7.7271  -7.3984  -7.0260  -6.4818  -5.0629
    -3.9731  -2.2490  -1.4244  -0.0370   1.4505   1.9077   2.3306   2.5163
     2.6407   3.0206   3.0718   3.4896   3.5683   4.5721   4.8397   5.0254
     5.6504   6.2275   6.9275   7.3254   8.8332   9.5635

     occupation numbers 
     1.0000   1.0000   1.0000   1.0000   1.0000   1.0000   1.0000   1.0000
     1.0000   1.0000   0.0000   0.0000   0.0000   0.0000   0.0000   0.0000
     0.0000   0.0000   0.0000   0.0000   0.0000   0.0000   0.0000   0.0000
     0.0000   0.0000   0.0000   0.0000   0.0000   0.0000

          k = 0.1500 0.0000 0.0000 (102312 PWs)   bands (ev):

   -17.0607 -14.5452 -11.0108  -7.8029  -7.1335  -6.8372  -6.5665  -4.9938
    -4.0104  -2.1676  -1.5158   0.2576   0.9165   1.7968   2.3714   2.4100
     2.7972   2.9636   3.1495   3.4679   3.8078   4.4625   4.8139   4.9145
     5.9970   6.0255   6.8166   7.1812   9.0028   9.3366

     occupation numbers 
     1.0000   1.0000   1.0000   1.0000   1.0000   1.0000   1.0000   1.0000
     1.0000   1.0000   0.0000   0.0000   0.0000   0.0000   0.0000   0.0000
     0.0000   0.0000   0.0000   0.0000   0.0000   0.0000   0.0000   0.0000
     0.0000   0.0000   0.0000   0.0000   0.0000   0.0000

          k = 0.1250 0.0000 0.0000 (102340 PWs)   bands (ev):

   -17.1426 -14.6296 -10.9165  -7.8680  -6.9217  -6.6388  -6.6233  -4.8766
    -4.0469  -2.1056  -1.5934   0.4148   0.5550   1.4837   2.3083   2.3197
     2.8717   3.0409   3.4028   3.4552   4.1487   4.3670   4.8184   4.8386
     5.8161   6.3530   6.7190   7.0568   8.7548   9.3626

     occupation numbers 
     1.0000   1.0000   1.0000   1.0000   1.0000   1.0000   1.0000   1.0000
     1.0000   1.0000   0.0000   0.0000   0.0000   0.0000   0.0000   0.0000
     0.0000   0.0000   0.0000   0.0000   0.0000   0.0000   0.0000   0.0000
     0.0000   0.0000   0.0000   0.0000   0.0000   0.0000

          k = 0.1000 0.0000 0.0000 (102299 PWs)   bands (ev):

   -17.2098 -14.6987 -10.8468  -7.9219  -6.7669  -6.6984  -6.3985  -4.7176
    -4.0800  -2.0625  -1.6572  -0.0366   0.8426   1.1166   2.2429   2.2455
     2.7962   3.1833   3.4515   3.8100   4.2852   4.5021   4.7364   4.9038
     5.6071   6.6351   6.6971   6.9540   8.2830   9.3153

     occupation numbers 
     1.0000   1.0000   1.0000   1.0000   1.0000   1.0000   1.0000   1.0000
     1.0000   1.0000   0.0000   0.0000   0.0000   0.0000   0.0000   0.0000
     0.0000   0.0000   0.0000   0.0000   0.0000   0.0000   0.0000   0.0000
     0.0000   0.0000   0.0000   0.0000   0.0000   0.0000

          k = 0.0750 0.0000 0.0000 (102271 PWs)   bands (ev):

   -17.2621 -14.7525 -10.7977  -7.9643  -6.7450  -6.6633  -6.1820  -4.5377
    -4.1075  -2.0376  -1.7070  -0.4192   0.7680   1.1041   2.1873   2.1891
     2.7370   3.1773   3.6361   4.1327   4.2170   4.6678   4.8551   5.0310
     5.4118   6.5657   6.8740   6.9894   7.7963   8.9757

     occupation numbers 
     1.0000   1.0000   1.0000   1.0000   1.0000   1.0000   1.0000   1.0000
     1.0000   1.0000   0.0000   0.0000   0.0000   0.0000   0.0000   0.0000
     0.0000   0.0000   0.0000   0.0000   0.0000   0.0000   0.0000   0.0000
     0.0000   0.0000   0.0000   0.0000   0.0000   0.0000

          k = 0.0500 0.0000 0.0000 (102275 PWs)   bands (ev):

   -17.2995 -14.7909 -10.7656  -7.9947  -6.7784  -6.6001  -5.9975  -4.3687
    -4.1280  -2.0291  -1.7426  -0.7119   0.4808   1.3192   2.1454   2.1498
     2.6942   3.1483   3.8148   4.1635   4.3549   4.6126   5.1839   5.2490
     5.2572   6.5129   6.8169   7.1608   7.3236   8.7975

     occupation numbers 
     1.0000   1.0000   1.0000   1.0000   1.0000   1.0000   1.0000   1.0000
     1.0000   1.0000   0.0000   0.0000   0.0000   0.0000   0.0000   0.0000
     0.0000   0.0000   0.0000   0.0000   0.0000   0.0000   0.0000   0.0000
     0.0000   0.0000   0.0000   0.0000   0.0000   0.0000

          k = 0.0250 0.0000 0.0000 (102291 PWs)   bands (ev):

   -17.3220 -14.8140 -10.7474  -8.0130  -6.7985  -6.5667  -5.8714  -4.2469
    -4.1407  -2.0313  -1.7640  -0.8952   0.2898   1.4638   2.1197   2.1259
     2.6682   3.1277   3.9388   4.1279   4.4628   4.5736   5.1397   5.4405
     5.5499   6.4793   6.7828   6.9087   7.1773   8.8432

     occupation numbers 
     1.0000   1.0000   1.0000   1.0000   1.0000   1.0000   1.0000   1.0000
     1.0000   1.0000   0.0000   0.0000   0.0000   0.0000   0.0000   0.0000
     0.0000   0.0000   0.0000   0.0000   0.0000   0.0000   0.0000   0.0000
     0.0000   0.0000   0.0000   0.0000   0.0000   0.0000

          k = 0.0000 0.0000 0.0000 (102301 PWs)   bands (ev):

   -17.3295 -14.8217 -10.7416  -8.0192  -6.8052  -6.5564  -5.8264  -4.2022
    -4.1450  -2.0340  -1.7711  -0.9574   0.2225   1.5152   2.1110   2.1180
     2.6594   3.1205   3.9838   4.1151   4.4929   4.5586   5.1011   5.5436
     5.7193   6.4677   6.7046   6.7715   7.1509   8.9797

     occupation numbers 
     1.0000   1.0000   1.0000   1.0000   1.0000   1.0000   1.0000   1.0000
     1.0000   1.0000   0.0000   0.0000   0.0000   0.0000   0.0000   0.0000
     0.0000   0.0000   0.0000   0.0000   0.0000   0.0000   0.0000   0.0000
     0.0000   0.0000   0.0000   0.0000   0.0000   0.0000

          k = 0.0000 0.0256 0.0000 (102315 PWs)   bands (ev):

   -17.3231 -14.8255 -10.7594  -8.0442  -6.7700  -6.5663  -5.8214  -4.2044
    -4.0988  -2.1555  -1.6565  -0.9529   0.2125   1.5001   2.1200   2.1355
     2.6682   3.1331   3.9330   4.0906   4.4029   4.5695   5.1989   5.5836
     5.7263   6.4699   6.7408   6.7868   7.1084   9.0112

     occupation numbers 
     1.0000   1.0000   1.0000   1.0000   1.0000   1.0000   1.0000   1.0000
     1.0000   1.0000   0.0000   0.0000   0.0000   0.0000   0.0000   0.0000
     0.0000   0.0000   0.0000   0.0000   0.0000   0.0000   0.0000   0.0000
     0.0000   0.0000   0.0000   0.0000   0.0000   0.0000

          k = 0.0000 0.0513 0.0000 (102301 PWs)   bands (ev):

   -17.3039 -14.8374 -10.8095  -8.1191  -6.6676  -6.5888  -5.8064  -4.2110
    -3.9681  -2.3611  -1.4708  -0.9393   0.1821   1.4566   2.1468   2.1869
     2.6946   3.1708   3.7959   3.9616   4.3117   4.6018   5.3199   5.6892
     5.7996   6.4720   6.8341   6.8471   6.9960   8.6382

     occupation numbers 
     1.0000   1.0000   1.0000   1.0000   1.0000   1.0000   1.0000   1.0000
     1.0000   1.0000   0.0000   0.0000   0.0000   0.0000   0.0000   0.0000
     0.0000   0.0000   0.0000   0.0000   0.0000   0.0000   0.0000   0.0000
     0.0000   0.0000   0.0000   0.0000   0.0000   0.0000

          k = 0.0000 0.0769 0.0000 (102333 PWs)   bands (ev):

   -17.2720 -14.8582 -10.8838  -8.2421  -6.6085  -6.5057  -5.7816  -4.2224
    -3.7714  -2.5852  -1.2782  -0.9151   0.1308   1.3901   2.1915   2.2689
     2.7382   3.2336   3.6020   3.7297   4.3167   4.6554   5.3120   5.8331
     5.9966   6.4524   6.8577   6.9166   7.0179   8.2967

     occupation numbers 
     1.0000   1.0000   1.0000   1.0000   1.0000   1.0000   1.0000   1.0000
     1.0000   1.0000   0.0000   0.0000   0.0000   0.0000   0.0000   0.0000
     0.0000   0.0000   0.0000   0.0000   0.0000   0.0000   0.0000   0.0000
     0.0000   0.0000   0.0000   0.0000   0.0000   0.0000

          k = 0.0000 0.1026 0.0000 (102321 PWs)   bands (ev):

   -17.2277 -14.8891 -10.9712  -8.4074  -6.6123  -6.2947  -5.7472  -4.2391
    -3.5299  -2.8189  -1.0879  -0.8760   0.0580   1.3083   2.2536   2.3767
     2.7982   3.3212   3.3763   3.4754   4.3658   4.7297   5.2286   5.9941
     6.2387   6.3584   6.7655   7.0373   7.2447   7.9455

     occupation numbers 
     1.0000   1.0000   1.0000   1.0000   1.0000   1.0000   1.0000   1.0000
     1.0000   1.0000   0.0000   0.0000   0.0000   0.0000   0.0000   0.0000
     0.0000   0.0000   0.0000   0.0000   0.0000   0.0000   0.0000   0.0000
     0.0000   0.0000   0.0000   0.0000   0.0000   0.0000

          k = 0.0000 0.1282 0.0000 (102293 PWs)   bands (ev):

   -17.1710 -14.9317 -11.0605  -8.6061  -6.5936  -6.0455  -5.7036  -4.2619
    -3.2630  -3.0587  -0.9243  -0.7967  -0.0360   1.2193   2.3327   2.5055
     2.8705   3.1351   3.2306   3.4327   4.4400   4.8233   5.1261   6.1612
     6.1744   6.4636   6.7413   7.1820   7.5175   7.6067

     occupation numbers 
     1.0000   1.0000   1.0000   1.0000   1.0000   1.0000   1.0000   1.0000
     1.0000   1.0000   0.0000   0.0000   0.0000   0.0000   0.0000   0.0000
     0.0000   0.0000   0.0000   0.0000   0.0000   0.0000   0.0000   0.0000
     0.0000   0.0000   0.0000   0.0000   0.0000   0.0000

          k = 0.0000 0.1539 0.0000 (102305 PWs)   bands (ev):

   -17.1023 -14.9876 -11.1414  -8.8276  -6.5515  -5.7679  -5.6510  -4.2914
    -3.3020  -2.9876  -0.8335  -0.6303  -0.1488   1.1312   2.4275   2.6509
     2.8886   2.9036   3.0548   3.5670   4.5343   4.9338   5.0298   5.9504
     6.3298   6.6547   6.7102   7.2678   7.3217   7.7796

     occupation numbers 
     1.0000   1.0000   1.0000   1.0000   1.0000   1.0000   1.0000   1.0000
     1.0000   1.0000   0.0000   0.0000   0.0000   0.0000   0.0000   0.0000
     0.0000   0.0000   0.0000   0.0000   0.0000   0.0000   0.0000   0.0000
     0.0000   0.0000   0.0000   0.0000   0.0000   0.0000

          k = 0.0000 0.1795 0.0000 (102309 PWs)   bands (ev):

   -17.0219 -15.0579 -11.2058  -9.0624  -6.4873  -5.5900  -5.4705  -4.3285
    -3.5462  -2.7204  -0.7673  -0.4250  -0.2745   1.0510   2.5311   2.6438
     2.7373   2.8102   3.1155   3.7219   4.6470   4.9536   5.0547   5.7218
     6.4992   6.5696   6.8093   7.1393   7.1425   7.4368

     occupation numbers 
     1.0000   1.0000   1.0000   1.0000   1.0000   1.0000   1.0000   1.0000
     1.0000   1.0000   0.0000   0.0000   0.0000   0.0000   0.0000   0.0000
     0.0000   0.0000   0.0000   0.0000   0.0000   0.0000   0.0000   0.0000
     0.0000   0.0000   0.0000   0.0000   0.0000   0.0000

          k = 0.0000 0.2052 0.0000 (102297 PWs)   bands (ev):

   -16.9305 -15.1432 -11.2477  -9.3030  -6.4032  -5.5212  -5.1612  -4.3736
    -3.7882  -2.4804  -0.7002  -0.4018  -0.2082   0.9844   2.4052   2.4915
     2.6945   2.9816   3.2402   3.8952   4.7751   4.9060   5.1637   5.5180
     6.3215   6.6703   6.7630   6.8917   7.0552   7.3251

     occupation numbers 
     1.0000   1.0000   1.0000   1.0000   1.0000   1.0000   1.0000   1.0000
     1.0000   1.0000   0.0000   0.0000   0.0000   0.0000   0.0000   0.0000
     0.0000   0.0000   0.0000   0.0000   0.0000   0.0000   0.0000   0.0000
     0.0000   0.0000   0.0000   0.0000   0.0000   0.0000

          k = 0.0000 0.2308 0.0000 (102261 PWs)   bands (ev):

   -16.8284 -15.2433 -11.2630  -9.5433  -6.3009  -5.4455  -4.8490  -4.4272
    -4.0227  -2.2922  -0.6300  -0.5122   0.0139   0.9360   2.1766   2.2947
     2.8298   3.1647   3.3864   4.0845   4.8624   4.9432   5.1573   5.4284
     6.0646   6.4571   6.5572   6.8445   7.1866   7.3764

     occupation numbers 
     1.0000   1.0000   1.0000   1.0000   1.0000   1.0000   1.0000   1.0000
     1.0000   1.0000   0.0000   0.0000   0.0000   0.0000   0.0000   0.0000
     0.0000   0.0000   0.0000   0.0000   0.0000   0.0000   0.0000   0.0000
     0.0000   0.0000   0.0000   0.0000   0.0000   0.0000

          k = 0.0000 0.2564 0.0000 (102295 PWs)   bands (ev):

   -16.7165 -15.3569 -11.2498  -9.7786  -6.1820  -5.3636  -4.5650  -4.4893
    -4.2215  -2.1857  -0.5805  -0.5586   0.2366   0.9092   1.9607   2.0971
     2.9890   3.3598   3.5504   4.2873   4.8666   5.0037   5.1013   5.4124
     5.8989   6.1283   6.2399   7.0232   7.0461   7.3811

     occupation numbers 
     1.0000   1.0000   1.0000   1.0000   1.0000   1.0000   1.0000   1.0000
     1.0000   1.0000   0.0000   0.0000   0.0000   0.0000   0.0000   0.0000
     0.0000   0.0000   0.0000   0.0000   0.0000   0.0000   0.0000   0.0000
     0.0000   0.0000   0.0000   0.0000   0.0000   0.0000

          k = 0.0000 0.2821 0.0000 (102278 PWs)   bands (ev):

   -16.5957 -15.4821 -11.2077 -10.0053  -6.0477  -5.2766  -4.5625  -4.5596
    -4.1336  -2.1841  -0.5884  -0.4902   0.4551   0.9062   1.7600   1.9064
     3.1645   3.5675   3.7312   4.5012   4.8291   4.8738   5.2698   5.2817
     5.7829   5.8064   6.0880   6.7308   7.2076   7.3111

     occupation numbers 
     1.0000   1.0000   1.0000   1.0000   1.0000   1.0000   1.0000   1.0000
     1.0000   1.0000   0.0000   0.0000   0.0000   0.0000   0.0000   0.0000
     0.0000   0.0000   0.0000   0.0000   0.0000   0.0000   0.0000   0.0000
     0.0000   0.0000   0.0000   0.0000   0.0000   0.0000

          k = 0.0000 0.3077 0.0000 (102328 PWs)   bands (ev):

   -16.4669 -15.6165 -11.1372 -10.2206  -5.8990  -5.1856  -4.7627  -4.6372
    -3.8403  -2.2848  -0.5433  -0.4303   0.6642   0.9283   1.5765   1.7239
     3.3548   3.7883   3.9280   4.6415   4.7302   4.8746   5.0894   5.4496
     5.5215   5.5279   6.2045   6.4127   7.0429   7.3984

     occupation numbers 
     1.0000   1.0000   1.0000   1.0000   1.0000   1.0000   1.0000   1.0000
     1.0000   1.0000   0.0000   0.0000   0.0000   0.0000   0.0000   0.0000
     0.0000   0.0000   0.0000   0.0000   0.0000   0.0000   0.0000   0.0000
     0.0000   0.0000   0.0000   0.0000   0.0000   0.0000

          k = 0.0000 0.3334 0.0000 (102334 PWs)   bands (ev):

   -16.3315 -15.7572 -11.0399 -10.4217  -5.7369  -5.0920  -4.9737  -4.7212
    -3.5353  -2.4628  -0.4747  -0.3860   0.8603   0.9760   1.4120   1.5495
     3.5587   4.0218   4.1398   4.4471   4.8475   4.8902   5.0065   5.2138
     5.2619   5.6950   6.1059   6.3745   6.7831   7.3713

     occupation numbers 
     1.0000   1.0000   1.0000   1.0000   1.0000   1.0000   1.0000   1.0000
     1.0000   1.0000   0.0000   0.0000   0.0000   0.0000   0.0000   0.0000
     0.0000   0.0000   0.0000   0.0000   0.0000   0.0000   0.0000   0.0000
     0.0000   0.0000   0.0000   0.0000   0.0000   0.0000

          k = 0.0000 0.3590 0.0000 (102354 PWs)   bands (ev):

   -16.1908 -15.9015 -10.9176 -10.6064  -5.5623  -5.1793  -4.9972  -4.8102
    -3.2374  -2.6918  -0.4119  -0.3648   1.0426   1.0491   1.2683   1.3811
     3.7745   4.2217   4.2726   4.3636   4.7394   4.7920   5.0187   5.0236
     5.2633   5.7762   5.9537   6.3907   6.7098   7.1250

     occupation numbers 
     1.0000   1.0000   1.0000   1.0000   1.0000   1.0000   1.0000   1.0000
     1.0000   1.0000   0.0000   0.0000   0.0000   0.0000   0.0000   0.0000
     0.0000   0.0000   0.0000   0.0000   0.0000   0.0000   0.0000   0.0000
     0.0000   0.0000   0.0000   0.0000   0.0000   0.0000

          k = 0.0000 0.3847 0.0000 (102396 PWs)   bands (ev):

   -16.0468 -16.0468 -10.7724 -10.7724  -5.3761  -5.3760  -4.9028  -4.9027
    -2.9538  -2.9538  -0.3730  -0.3730   1.1469   1.1469   1.2142   1.2142
     3.9988   3.9991   4.5093   4.5096   4.6035   4.6040   4.9679   4.9680
     5.5135   5.5138   6.1736   6.1740   6.8959   6.8962

     occupation numbers 
     1.0000   1.0000   1.0000   1.0000   1.0000   1.0000   1.0000   1.0000
     1.0000   1.0000   0.0000   0.0000   0.0000   0.0000   0.0000   0.0000
     0.0000   0.0000   0.0000   0.0000   0.0000   0.0000   0.0000   0.0000
     0.0000   0.0000   0.0000   0.0000   0.0000   0.0000

     the Fermi energy is    -1.8830 ev

!    total energy              =     -61.96428032 Ry
     Harris-Foulkes estimate   =     -61.96428033 Ry
     estimated scf accuracy    <          4.2E-10 Ry

     The total energy is the sum of the following terms:

     one-electron contribution =    -437.87706576 Ry
     hartree contribution      =     222.16396257 Ry
     xc contribution           =     -23.63210626 Ry
     ewald contribution        =     177.38092913 Ry
     smearing contrib. (-TS)   =      -0.00000000 Ry

     convergence has been achieved in   9 iterations

     Forces acting on atoms (cartesian axes, Ry/au):

     atom    1 type  1   force =     0.00000000   -0.00194989    0.03528017
     atom    2 type  1   force =     0.00000000    0.00195067   -0.03528111
     atom    3 type  1   force =     0.00000000   -0.00194926   -0.03528213
     atom    4 type  1   force =     0.00000000    0.00194848    0.03528308
     The non-local contrib.  to forces
     atom    1 type  1   force =     0.00000000   -0.25443919    0.22179867
     atom    2 type  1   force =     0.00000000    0.25444184   -0.22179498
     atom    3 type  1   force =     0.00000000   -0.25444593   -0.22178780
     atom    4 type  1   force =     0.00000000    0.25444750    0.22179104
     The ionic contribution  to forces
     atom    1 type  1   force =    -0.00000000    1.39635482   -9.83417623
     atom    2 type  1   force =    -0.00000000   -1.39635602    9.83417623
     atom    3 type  1   force =     0.00000000    1.39635608    9.83417596
     atom    4 type  1   force =     0.00000000   -1.39635488   -9.83417596
     The local contribution  to forces
     atom    1 type  1   force =    -0.00000000   -1.15369351    9.65651024
     atom    2 type  1   force =    -0.00000000    1.15369415   -9.65652000
     atom    3 type  1   force =     0.00000000   -1.15367471   -9.65653290
     atom    4 type  1   force =    -0.00000000    1.15367449    9.65652952
     The core correction contribution to forces
     atom    1 type  1   force =     0.00000000    0.00981927   -0.00884878
     atom    2 type  1   force =     0.00000000   -0.00981804    0.00884762
     atom    3 type  1   force =    -0.00000000    0.00981941    0.00884732
     atom    4 type  1   force =     0.00000000   -0.00982020   -0.00884791
     The Hubbard contrib.    to forces
     atom    1 type  1   force =     0.00000000    0.00000000    0.00000000
     atom    2 type  1   force =     0.00000000    0.00000000    0.00000000
     atom    3 type  1   force =     0.00000000    0.00000000    0.00000000
     atom    4 type  1   force =     0.00000000    0.00000000    0.00000000
     The SCF correction term to forces
     atom    1 type  1   force =     0.00000000    0.00000891   -0.00000420
     atom    2 type  1   force =     0.00000000   -0.00001107    0.00000953
     atom    3 type  1   force =    -0.00000000   -0.00000393    0.00001482
     atom    4 type  1   force =    -0.00000000    0.00000177   -0.00001409

     Total force =     0.070671     Total SCF correction =     0.000027

     Writing output data file p.save
 
     init_run     :      6.58s CPU      3.69s WALL (       1 calls)
     electrons    :    193.34s CPU    101.73s WALL (       1 calls)
     forces       :      1.19s CPU      0.64s WALL (       1 calls)

     Called by init_run:
     wfcinit      :      5.48s CPU      2.88s WALL (       1 calls)
     wfcinit:atom :      0.08s CPU      0.03s WALL (      36 calls)
     wfcinit:wfcr :      5.07s CPU      2.67s WALL (      36 calls)
     potinit      :      0.32s CPU      0.17s WALL (       1 calls)

     Called by electrons:
     c_bands      :    167.39s CPU     88.06s WALL (      10 calls)
     sum_band     :     25.33s CPU     13.23s WALL (      10 calls)
     v_of_rho     :      0.13s CPU      0.07s WALL (      10 calls)
     v_h          :      0.07s CPU      0.04s WALL (      10 calls)
     v_xc         :      0.07s CPU      0.03s WALL (      11 calls)
     mix_rho      :      0.22s CPU      0.13s WALL (      10 calls)

     Called by c_bands:
     init_us_2    :      1.46s CPU      0.73s WALL (     792 calls)
     cegterg      :    163.66s CPU     85.37s WALL (     360 calls)

     Called by sum_band:

     Called by *egterg:
     h_psi        :    116.74s CPU     61.01s WALL (    1506 calls)
     g_psi        :      0.91s CPU      0.47s WALL (    1110 calls)
     cdiaghg      :     18.13s CPU      9.60s WALL (    1434 calls)
     cegterg:over :      9.53s CPU      4.86s WALL (    1110 calls)
     cegterg:upda :     11.38s CPU      5.83s WALL (    1110 calls)
     cegterg:last :      4.46s CPU      2.33s WALL (     396 calls)
     cdiaghg:chol :      0.68s CPU      0.36s WALL (    1434 calls)
     cdiaghg:inve :      0.17s CPU      0.10s WALL (    1434 calls)
     cdiaghg:para :      0.92s CPU      0.52s WALL (    2868 calls)

     Called by h_psi:
     h_psi:pot    :    114.24s CPU     59.71s WALL (    1506 calls)
     h_psi:calbec :      2.89s CPU      1.51s WALL (    1506 calls)
     vloc_psi     :    109.05s CPU     57.05s WALL (    1506 calls)
     add_vuspsi   :      2.25s CPU      1.13s WALL (    1506 calls)

     General routines
     calbec       :      3.13s CPU      1.63s WALL (    1650 calls)
     fft          :      0.23s CPU      0.15s WALL (      45 calls)
     fftw         :    117.92s CPU     61.27s WALL (   67286 calls)
 
     Parallel routines
     fft_scatt_xy :     29.56s CPU      6.88s WALL (   67331 calls)
     fft_scatt_yz :     41.27s CPU     18.90s WALL (   67331 calls)
 
     PWSCF        :  3m28.11s CPU     1m54.09s WALL

 
   This run was terminated on:  21:29: 7  27Jul2018            

=------------------------------------------------------------------------------=
   JOB DONE.
=------------------------------------------------------------------------------=
