
     Program PWSCF v.6.0 (svn rev. 13079) starts on 27Jul2018 at 10:33: 3 

     This program is part of the open-source Quantum ESPRESSO suite
     for quantum simulation of materials; please cite
         "P. Giannozzi et al., J. Phys.:Condens. Matter 21 395502 (2009);
          URL http://www.quantum-espresso.org", 
     in publications or presentations arising from this work. More details at
     http://www.quantum-espresso.org/quote

     Serial version
     Waiting for input...
     Reading input from standard input
     Message from routine read_cards :
     DEPRECATED: no units specified in CELL_PARAMETERS card

     Current dimensions of program PWSCF are:
     Max number of different atomic species (ntypx) = 10
     Max number of k-points (npk) =  40000
     Max angular momentum in pseudopotentials (lmaxx) =  3
 
     G-vector sticks info
     --------------------
     sticks:   dense  smooth     PW     G-vecs:    dense   smooth      PW
     Sum       15793   15793   4149              1493013  1493013  200597
 


     bravais-lattice index     =            0
     lattice parameter (alat)  =       4.5000  a.u.
     unit-cell volume          =    3906.9844 (a.u.)^3
     number of atoms/cell      =            1
     number of atomic types    =            1
     number of electrons       =         4.00
     number of Kohn-Sham states=           10
     kinetic-energy cutoff     =     200.0000  Ry
     charge density cutoff     =     800.0000  Ry
     convergence threshold     =      5.0E-06
     mixing beta               =       0.7000
     number of iterations used =            4  local-TF  mixing
     Exchange-correlation      = PZ ( 1  1  0  0 0 0)

     celldm(1)=   4.500000  celldm(2)=   0.000000  celldm(3)=   0.000000
     celldm(4)=   0.000000  celldm(5)=   0.000000  celldm(6)=   0.000000

     crystal axes: (cart. coord. in units of alat)
               a(1) = (   3.500000   0.000000   0.000000 )  
               a(2) = (   0.000000   3.500000   0.000000 )  
               a(3) = (   0.000000   0.000000   3.500000 )  

     reciprocal axes: (cart. coord. in units 2 pi/alat)
               b(1) = (  0.285714  0.000000  0.000000 )  
               b(2) = (  0.000000  0.285714  0.000000 )  
               b(3) = (  0.000000  0.000000  0.285714 )  


     PseudoPot. # 1 for Ge read from file:
     ./Ge.UPF
     MD5 check sum: 1985e013bbfe619c345e4a940ace0320
     Pseudo is Norm-conserving + core correction, Zval =  4.0
     Generated using "atomic" code by A. Dal Corso  v.6.0 svn rev. 13079
     Using radial grid of 1207 points,  2 beta functions with: 
                l(1) =   0
                l(2) =   1

     atomic species   valence    mass     pseudopotential
        Ge             4.00    12.00000     Ge( 1.00)

     Starting magnetic structure 
     atomic species   magnetization
        Ge           0.010

     48 Sym. Ops., with inversion, found



   Cartesian axes

     site n.     atom                  positions (alat units)
         1           Ge  tau(   1) = (   1.7500000   1.7500000   1.7500000  )

     number of k points=     4  gaussian smearing, width (Ry)=  0.0030
                       cart. coord. in units 2pi/alat
        k(    1) = (   0.0000000   0.0000000   0.0000000), wk =   0.1250000
        k(    2) = (   0.0000000   0.0000000  -0.1428571), wk =   0.3750000
        k(    3) = (   0.0000000  -0.1428571  -0.1428571), wk =   0.3750000
        k(    4) = (  -0.1428571  -0.1428571  -0.1428571), wk =   0.1250000

     Dense  grid:  1493013 G-vectors     FFT dimensions: ( 141, 141, 141)

     Estimated max dynamical RAM per process >    1892.71Mb
     Generating pointlists ...
     new r_m :   0.4125 (alat units)  1.8563 (a.u.) for type    1
dfftp%nnr =2803221
    141    141    141    141    141    141
SIZE(dfftp%isind) =   19881
bg(1:3,1):   0.2857  0.0000  0.0000
bg(1:3,2):   0.0000  0.2857  0.0000
bg(1:3,3):   0.0000  0.0000  0.2857
at(1:3,1):   3.5000  0.0000  0.0000
at(1:3,2):   0.0000  3.5000  0.0000
at(1:3,3):   0.0000  0.0000  3.5000
nt =     1 na =    1
tau(:,na) =    1.75000   1.75000   1.75000
  k    rho_core(k)
       1   0.00000E+00
       2   0.00000E+00
       3   0.00000E+00
       4   0.00000E+00
       5   0.00000E+00
       6   0.00000E+00
       7   0.00000E+00
       8   0.00000E+00
       9   0.00000E+00
      10   0.00000E+00
      11   0.00000E+00
      12   0.00000E+00
      13   0.00000E+00
      14   0.00000E+00
      15   0.00000E+00
      16   0.00000E+00
      17   0.00000E+00
      18   0.00000E+00
      19   0.00000E+00
      20   0.00000E+00
      21   0.00000E+00
      22   0.00000E+00
      23   0.00000E+00
      24   0.00000E+00
      25   0.00000E+00
      26   0.00000E+00
      27   0.00000E+00
      28   0.00000E+00
      29   0.00000E+00
      30   0.00000E+00
      31   0.00000E+00
      32   0.00000E+00
      33   0.00000E+00
      34   0.00000E+00
      35   0.00000E+00
      36   0.00000E+00
      37   0.00000E+00
      38   0.00000E+00
      39   0.00000E+00
      40   0.00000E+00
      41   0.00000E+00
      42   0.00000E+00
      43   0.00000E+00
      44   0.00000E+00
      45   0.00000E+00
      46   0.00000E+00
      47   0.00000E+00
      48   0.00000E+00
      49   0.00000E+00
      50   0.00000E+00
      51   0.00000E+00
      52   0.00000E+00
      53   0.00000E+00
      54   0.00000E+00
      55   0.00000E+00
      56   0.00000E+00
      57   0.00000E+00
      58   0.00000E+00
      59   0.00000E+00
      60   0.00000E+00
      61   0.00000E+00
      62   0.00000E+00
      63   0.00000E+00
      64   0.00000E+00
      65   0.00000E+00
      66   0.00000E+00
      67   0.00000E+00
      68   0.00000E+00
      69   0.00000E+00
      70   0.00000E+00
      71   0.00000E+00
      72   0.00000E+00
      73   0.00000E+00
      74   0.00000E+00
      75   0.00000E+00
      76   0.00000E+00
      77   0.00000E+00
      78   0.00000E+00
      79   0.00000E+00
      80   0.00000E+00
      81   0.00000E+00
      82   0.00000E+00
      83   0.00000E+00
      84   0.00000E+00
      85   0.00000E+00
      86   0.00000E+00
      87   0.00000E+00
      88   0.00000E+00
      89   0.00000E+00
      90   0.00000E+00
      91   0.00000E+00
      92   0.00000E+00
      93   0.00000E+00
      94   0.00000E+00
      95   0.00000E+00
      96   0.00000E+00
      97   0.00000E+00
      98   0.00000E+00
      99   0.00000E+00
     100   0.00000E+00
     101   0.00000E+00
     102   0.00000E+00
     103   0.00000E+00
     104   0.00000E+00
     105   0.00000E+00
     106   0.00000E+00
     107   0.00000E+00
     108   0.00000E+00
     109   0.00000E+00
     110   0.00000E+00
     111   0.00000E+00
     112   0.00000E+00
     113   0.00000E+00
     114   0.00000E+00
     115   0.00000E+00
     116   0.00000E+00
     117   0.00000E+00
     118   0.00000E+00
     119   0.00000E+00
     120   0.00000E+00
     121   0.00000E+00
     122   0.00000E+00
     123   0.00000E+00
     124   0.00000E+00
     125   0.00000E+00
     126   0.00000E+00
     127   0.00000E+00
     128   0.00000E+00
     129   0.00000E+00
     130   0.00000E+00
     131   0.00000E+00
     132   0.00000E+00
     133   0.00000E+00
     134   0.00000E+00
     135   0.00000E+00
     136   0.00000E+00
     137   0.00000E+00
     138   0.00000E+00
     139   0.00000E+00
     140   0.00000E+00
     141   0.00000E+00
     142   0.00000E+00
     143   0.00000E+00
     144   0.00000E+00
     145   0.00000E+00
     146   0.00000E+00
     147   0.00000E+00
     148   0.00000E+00
     149   0.00000E+00
     150   0.00000E+00
     151   0.00000E+00
     152   0.00000E+00
     153   0.00000E+00
     154   0.00000E+00
     155   0.00000E+00
     156   0.00000E+00
     157   0.00000E+00
     158   0.00000E+00
     159   0.00000E+00
     160   0.00000E+00
     161   0.00000E+00
     162   0.00000E+00
     163   0.00000E+00
     164   0.00000E+00
     165   0.00000E+00
     166   0.00000E+00
     167   0.00000E+00
     168   0.00000E+00
     169   0.00000E+00
     170   0.00000E+00
     171   0.00000E+00
     172   0.00000E+00
     173   0.00000E+00
     174   0.00000E+00
     175   0.00000E+00
     176   0.00000E+00
     177   0.00000E+00
     178   0.00000E+00
     179   0.00000E+00
     180   0.00000E+00
     181   0.00000E+00
     182   0.00000E+00
     183   0.00000E+00
     184   0.00000E+00
     185   0.00000E+00
     186   0.00000E+00
     187   0.00000E+00
     188   0.00000E+00
     189   0.00000E+00
     190   0.00000E+00
     191   0.00000E+00
     192   0.00000E+00
     193   0.00000E+00
     194   0.00000E+00
     195   0.00000E+00
     196   0.00000E+00
     197   0.00000E+00
     198   0.00000E+00
     199   0.00000E+00
     200   0.00000E+00
     201   0.00000E+00
     202   0.00000E+00
     203   0.00000E+00
     204   0.00000E+00
     205   0.00000E+00
     206   0.00000E+00
     207   0.00000E+00
     208   0.00000E+00
     209   0.00000E+00
     210   0.00000E+00
     211   0.00000E+00
     212   0.00000E+00
     213   0.00000E+00
     214   0.00000E+00
     215   0.00000E+00
     216   0.00000E+00
     217   0.00000E+00
     218   0.00000E+00
     219   0.00000E+00
     220   0.00000E+00
     221   0.00000E+00
     222   0.00000E+00
     223   0.00000E+00
     224   0.00000E+00
     225   0.00000E+00
     226   0.00000E+00
     227   0.00000E+00
     228   0.00000E+00
     229   0.00000E+00
     230   0.00000E+00
     231   0.00000E+00
     232   0.00000E+00
     233   0.00000E+00
     234   0.00000E+00
     235   0.00000E+00
     236   0.00000E+00
     237   0.00000E+00
     238   0.00000E+00
     239   0.00000E+00
     240   0.00000E+00
     241   0.00000E+00
     242   0.00000E+00
     243   0.00000E+00
     244   0.00000E+00
     245   0.00000E+00
     246   0.00000E+00
     247   0.00000E+00
     248   0.00000E+00
     249   0.00000E+00
     250   0.00000E+00
     251   0.00000E+00
     252   0.00000E+00
     253   0.00000E+00
     254   0.00000E+00
     255   0.00000E+00
     256   0.00000E+00
     257   0.00000E+00
     258   0.00000E+00
     259   0.00000E+00
     260   0.00000E+00
     261   0.00000E+00
     262   0.00000E+00
     263   0.00000E+00
     264   0.00000E+00
     265   0.00000E+00
     266   0.00000E+00
     267   0.00000E+00
     268   0.00000E+00
     269   0.00000E+00
     270   0.00000E+00
     271   0.00000E+00
     272   0.00000E+00
     273   0.00000E+00
     274   0.00000E+00
     275   0.00000E+00
     276   0.00000E+00
     277   0.00000E+00
     278   0.00000E+00
     279   0.00000E+00
     280   0.00000E+00
     281   0.00000E+00
     282   0.00000E+00
     283   0.00000E+00
     284   0.00000E+00
     285   0.00000E+00
     286   0.00000E+00
     287   0.00000E+00
     288   0.00000E+00
     289   0.00000E+00
     290   0.00000E+00
     291   0.00000E+00
     292   0.00000E+00
     293   0.00000E+00
     294   0.00000E+00
     295   0.00000E+00
     296   0.00000E+00
     297   0.00000E+00
     298   0.00000E+00
     299   0.00000E+00
     300   0.00000E+00
  ------------ 
  k    averhoc
           1  1.591451198133399E-012
           2  1.686922854586270E-012
           3  1.984665709159267E-012
           4  2.520437364926948E-012
           5  3.360003959714958E-012
           6  4.604959941452673E-012
           7  6.405744547428066E-012
           8  8.977145730646149E-012
           9  1.263483562487696E-011
          10  1.782725367085211E-011
          11  2.517949559360985E-011
          12  3.557925336864907E-011
          13  5.032371653157324E-011
          14  7.119078484669825E-011
          15  1.007315194191814E-010
          16  1.426195427409952E-010
          17  2.019099272694271E-010
          18  2.860547114220709E-010
          19  4.052012432894768E-010
          20  5.744441260906522E-010
          21  8.142756647158842E-010
          22  1.154978298236157E-009
          23  1.638672119126264E-009
          24  2.325477972207002E-009
          25  3.302383928435855E-009
          26  4.691102119897329E-009
          27  6.665714853925826E-009
          28  9.475386119097711E-009
          29  1.347830108468949E-008
          30  1.917983260614264E-008
          31  2.730869590122000E-008
          32  3.890194397930649E-008
          33  5.544712640186674E-008
          34  7.907782502783215E-008
          35  1.128481629751384E-007
          36  1.611622051684589E-007
          37  2.303260603444205E-007
          38  3.293607574820896E-007
          39  4.714321591262684E-007
          40  6.753189918862231E-007
          41  9.683615365342295E-007
          42  1.389816532098762E-006
          43  1.996682371413653E-006
          44  2.872198989207002E-006
          45  4.136356730024867E-006
          46  5.965976595098072E-006
          47  8.617658038188776E-006
          48  1.246769249603106E-005
          49  1.807358567436165E-005
          50  2.625523007003105E-005
          51  3.823909781885936E-005
          52  5.585384325069742E-005
          53  8.185535399095619E-005
          54  1.204559251947537E-004
          55  1.781110235904005E-004
          56  2.649346183782009E-004
          57  3.967641821578339E-004
          58  5.990887171840269E-004
          59  9.132994013888539E-004
          60  1.407144393082394E-003
          61  2.184865654974604E-003
          62  3.373638862822256E-003
          63  5.090068029611780E-003
          64  7.400701820404574E-003
          65  1.028723603801626E-002
          66  1.362555047724670E-002
          67  1.718438967002506E-002
          68  2.065121963972674E-002
          69  2.367263086760026E-002
          70  2.591129117945639E-002
          71  2.710341720261551E-002
          72  2.710341720261551E-002
          73  2.591129117945639E-002
          74  2.367263086760026E-002
          75  2.065121963972674E-002
          76  1.718438967002506E-002
          77  1.362555047724670E-002
          78  1.028723603801626E-002
          79  7.400701820404574E-003
          80  5.090068029611780E-003
          81  3.373638862822256E-003
          82  2.184865654974613E-003
          83  1.407144393082394E-003
          84  9.132994013888539E-004
          85  5.990887171840253E-004
          86  3.967641821578318E-004
          87  2.649346183782021E-004
          88  1.781110235904005E-004
          89  1.204559251947537E-004
          90  8.185535399095601E-005
          91  5.585384325069764E-005
          92  3.823909781885956E-005
          93  2.625523007003105E-005
          94  1.807358567436165E-005
          95  1.246769249603101E-005
          96  8.617658038188805E-006
          97  5.965976595098083E-006
          98  4.136356730024867E-006
          99  2.872198989207002E-006
         100  1.996682371413648E-006
         101  1.389816532098766E-006
         102  9.683615365342314E-007
         103  6.753189918862231E-007
         104  4.714321591262679E-007
         105  3.293607574820885E-007
         106  2.303260603444210E-007
         107  1.611622051684591E-007
         108  1.128481629751384E-007
         109  7.907782502783201E-008
         110  5.544712640186660E-008
         111  3.890194397930657E-008
         112  2.730869590122000E-008
         113  1.917983260614264E-008
         114  1.347830108468949E-008
         115  9.475386119097682E-009
         116  6.665714853925826E-009
         117  4.691102119897329E-009
         118  3.302383928435855E-009
         119  2.325477972207002E-009
         120  1.638672119126262E-009
         121  1.154978298236157E-009
         122  8.142756647158842E-010
         123  5.744441260906522E-010
         124  4.052012432894768E-010
         125  2.860547114220718E-010
         126  2.019099272694271E-010
         127  1.426195427409952E-010
         128  1.007315194191814E-010
         129  7.119078484669815E-011
         130  5.032371653157340E-011
         131  3.557925336864907E-011
         132  2.517949559360985E-011
         133  1.782725367085211E-011
         134  1.263483562487691E-011
         135  8.977145730646164E-012
         136  6.405744547428066E-012
         137  4.604959941452673E-012
         138  3.360003959714958E-012
         139  2.520437364926941E-012
         140  1.984665709159268E-012
         141  1.686922854586270E-012
  ------------ 
  k    rhog_core(k)
       1   0.22784E-02   0.00000E+00
       2  -0.22260E-02   0.16785E-19
       3  -0.22260E-02  -0.21966E-20
       4  -0.22260E-02  -0.19241E-19
       5  -0.22260E-02  -0.64051E-19
       6  -0.22260E-02  -0.56912E-19
       7  -0.22260E-02  -0.59514E-19
       8   0.21750E-02  -0.53644E-19
       9   0.21750E-02  -0.16258E-19
      10   0.21750E-02   0.26333E-19
      11   0.21750E-02   0.41666E-19
      12   0.21750E-02  -0.23745E-20
      13   0.21750E-02   0.44429E-19
      14   0.21750E-02   0.40048E-19
      15   0.21750E-02   0.99535E-19
      16   0.21750E-02   0.26990E-19
      17   0.21750E-02   0.41989E-19
      18   0.21750E-02   0.10964E-18
      19   0.21750E-02   0.11728E-18
      20  -0.21255E-02   0.71314E-19
      21  -0.21255E-02   0.33572E-20
      22  -0.21255E-02  -0.30185E-19
      23  -0.21255E-02  -0.95931E-19
      24  -0.21255E-02   0.48686E-20
      25  -0.21255E-02  -0.85892E-19
      26  -0.21255E-02  -0.12603E-18
      27  -0.21255E-02  -0.17214E-18
      28   0.20772E-02   0.97266E-19
      29   0.20772E-02   0.82115E-19
      30   0.20772E-02   0.70140E-19
      31   0.20772E-02  -0.47787E-19
      32   0.20772E-02  -0.28602E-19
      33   0.20772E-02  -0.30621E-19
      34  -0.20303E-02  -0.98870E-19
      35  -0.20303E-02  -0.86979E-19
      36  -0.20303E-02  -0.14365E-18
      37  -0.20303E-02  -0.15015E-18
      38  -0.20303E-02  -0.53596E-19
      39  -0.20303E-02  -0.10531E-18
      40  -0.20303E-02   0.51528E-19
      41  -0.20303E-02   0.39291E-19
      42  -0.20303E-02  -0.94527E-19
      43  -0.20303E-02  -0.13016E-18
      44  -0.20303E-02  -0.11881E-18
      45  -0.20303E-02   0.28960E-19
      46  -0.20303E-02  -0.15427E-18
      47  -0.20303E-02  -0.20725E-19
      48  -0.20303E-02   0.24791E-19
      49  -0.20303E-02  -0.16907E-19
      50  -0.20303E-02  -0.16379E-18
      51  -0.20303E-02  -0.16031E-18
      52  -0.20303E-02  -0.16652E-19
      53  -0.20303E-02  -0.24233E-19
      54  -0.20303E-02   0.35074E-19
      55  -0.20303E-02   0.58620E-19
      56  -0.20303E-02  -0.22077E-19
      57  -0.20303E-02  -0.18999E-19
      58   0.19847E-02   0.50612E-19
      59   0.19847E-02   0.15067E-18
      60   0.19847E-02   0.14184E-18
      61   0.19847E-02   0.20445E-18
      62   0.19847E-02  -0.13471E-19
      63   0.19847E-02   0.10519E-18
      64   0.19847E-02   0.14446E-19
      65   0.19847E-02  -0.86714E-19
      66   0.19847E-02   0.15445E-18
      67   0.19847E-02   0.66771E-20
      68   0.19847E-02  -0.10804E-18
      69   0.19847E-02   0.25061E-19
      70   0.19847E-02   0.14007E-18
      71   0.19847E-02   0.21824E-18
      72   0.19847E-02   0.11916E-18
      73   0.19847E-02   0.65829E-20
      74   0.19847E-02   0.21381E-18
      75   0.19847E-02   0.91103E-19
      76   0.19847E-02  -0.91489E-20
      77   0.19847E-02   0.91162E-19
      78   0.19847E-02  -0.30181E-19
      79   0.19847E-02   0.24456E-19
      80   0.19847E-02  -0.13613E-19
      81   0.19847E-02   0.73785E-19
      82   0.18969E-02   0.17811E-18
      83   0.18969E-02   0.21064E-18
      84   0.18969E-02   0.46194E-19
      85   0.18969E-02   0.54414E-19
      86   0.18969E-02   0.20206E-18
      87   0.18969E-02   0.32783E-19
      88   0.18969E-02   0.95862E-19
      89   0.18969E-02  -0.52087E-19
      90   0.18969E-02   0.63670E-19
      91   0.18969E-02   0.56824E-19
      92   0.18969E-02  -0.27361E-19
      93   0.18969E-02  -0.54995E-19
      94  -0.18548E-02   0.16314E-19
      95  -0.18548E-02  -0.15425E-18
      96  -0.18548E-02  -0.22073E-18
      97  -0.18548E-02  -0.13183E-18
      98  -0.18548E-02  -0.70388E-19
      99  -0.18548E-02  -0.21761E-18
     100  -0.18548E-02  -0.12208E-18
 1492913   0.14307E-08   0.20892E-20
 1492914   0.14307E-08   0.52528E-20
 1492915   0.14307E-08   0.23556E-20
 1492916   0.14307E-08   0.10062E-20
 1492917   0.14307E-08   0.15997E-21
 1492918  -0.50209E-09  -0.38548E-20
 1492919  -0.50209E-09  -0.34940E-20
 1492920  -0.50209E-09   0.46101E-22
 1492921  -0.50209E-09  -0.37592E-20
 1492922  -0.50209E-09   0.20960E-21
 1492923  -0.50209E-09  -0.36165E-20
 1492924  -0.50209E-09  -0.64777E-20
 1492925  -0.50209E-09  -0.61239E-20
 1492926   0.18691E-10   0.47336E-20
 1492927   0.18691E-10   0.47292E-20
 1492928   0.18691E-10   0.46459E-20
 1492929   0.18691E-10   0.44495E-20
 1492930   0.18691E-10   0.34107E-20
 1492931   0.18691E-10   0.32042E-20
 1492932   0.18691E-10   0.34649E-20
 1492933   0.18691E-10   0.34382E-20
 1492934  -0.10367E-08  -0.14728E-20
 1492935  -0.10367E-08   0.10418E-20
 1492936  -0.10367E-08  -0.43544E-20
 1492937  -0.10367E-08  -0.47955E-20
 1492938  -0.10367E-08  -0.25801E-20
 1492939  -0.10367E-08  -0.30092E-20
 1492940  -0.10367E-08  -0.31571E-20
 1492941  -0.10367E-08  -0.60793E-21
 1492942  -0.10367E-08  -0.39385E-20
 1492943  -0.10367E-08  -0.21553E-20
 1492944  -0.50209E-09  -0.57581E-20
 1492945  -0.50209E-09  -0.53989E-20
 1492946   0.14307E-08  -0.26902E-20
 1492947   0.14307E-08  -0.29639E-20
 1492948   0.14307E-08  -0.19082E-20
 1492949   0.14307E-08  -0.15390E-20
 1492950  -0.50209E-09  -0.43911E-20
 1492951  -0.50209E-09  -0.34388E-20
 1492952  -0.10367E-08  -0.39501E-20
 1492953  -0.10367E-08  -0.43702E-20
 1492954  -0.10367E-08  -0.36215E-20
 1492955  -0.10367E-08  -0.40140E-20
 1492956  -0.50209E-09  -0.39205E-20
 1492957  -0.50209E-09  -0.29751E-20
 1492958   0.14307E-08  -0.32719E-20
 1492959   0.14307E-08  -0.29510E-20
 1492960   0.14307E-08  -0.88219E-21
 1492961   0.14307E-08  -0.12111E-20
 1492962  -0.50209E-09  -0.41013E-20
 1492963  -0.50209E-09  -0.37508E-20
 1492964  -0.10367E-08  -0.47011E-20
 1492965  -0.10367E-08  -0.28842E-20
 1492966  -0.43500E-09  -0.32727E-21
 1492967  -0.43500E-09  -0.55778E-21
 1492968  -0.43500E-09   0.11483E-20
 1492969  -0.43500E-09   0.64322E-22
 1492970  -0.43500E-09   0.50117E-21
 1492971  -0.43500E-09  -0.56413E-21
 1492972  -0.43500E-09  -0.14193E-20
 1492973  -0.43500E-09  -0.16273E-20
 1492974   0.70489E-09  -0.24327E-20
 1492975   0.70489E-09  -0.28181E-20
 1492976  -0.36941E-09   0.11439E-20
 1492977  -0.36941E-09   0.14961E-20
 1492978  -0.36941E-09   0.13485E-20
 1492979  -0.36941E-09   0.15444E-20
 1492980   0.70489E-09  -0.18948E-20
 1492981   0.70489E-09  -0.11240E-20
 1492982   0.70489E-09  -0.35612E-20
 1492983   0.70489E-09  -0.28299E-20
 1492984  -0.36941E-09   0.16550E-20
 1492985  -0.36941E-09   0.18601E-20
 1492986  -0.36941E-09   0.11051E-20
 1492987  -0.36941E-09   0.14677E-20
 1492988   0.70489E-09  -0.75286E-21
 1492989   0.70489E-09  -0.11764E-20
 1492990  -0.10383E-08   0.15053E-20
 1492991  -0.10383E-08   0.17245E-20
 1492992  -0.10383E-08   0.20541E-20
 1492993  -0.10383E-08   0.22211E-20
 1492994  -0.10383E-08   0.24249E-20
 1492995  -0.10383E-08   0.25698E-20
 1492996  -0.10383E-08   0.18448E-20
 1492997  -0.10383E-08   0.20394E-20
 1492998   0.14833E-08  -0.82862E-22
 1492999   0.14833E-08   0.79684E-22
 1493000  -0.61987E-09   0.10585E-20
 1493001  -0.61987E-09   0.89051E-21
 1493002  -0.61987E-09   0.11794E-20
 1493003  -0.61987E-09   0.11201E-20
 1493004   0.14833E-08   0.79733E-21
 1493005   0.14833E-08   0.10675E-20
 1493006   0.14833E-08   0.95768E-21
 1493007   0.14833E-08   0.11991E-20
 1493008  -0.61987E-09   0.10744E-20
 1493009  -0.61987E-09   0.99854E-21
 1493010  -0.61987E-09   0.10177E-20
 1493011  -0.61987E-09   0.83384E-21
 1493012   0.14833E-08  -0.14735E-21
 1493013   0.14833E-08  -0.14735E-22
  ------------ 

     Initial potential from superposition of free atoms

     starting charge    3.99943, renormalised to    4.00000

     negative rho (up, down):  1.937E-05 1.898E-05
     Starting wfc are    4 randomized atomic wfcs +    6 random wfc

     total cpu time spent up to now is       96.9 secs

     per-process dynamical memory:   995.8 Mb

     Self-consistent Calculation

     iteration #  1     ecut=   200.00 Ry     beta=0.70
     Davidson diagonalization with overlap
     ethr =  1.00E-02,  avg # of iterations = 10.4

     Threshold (ethr) on eigenvalues was too large:
     Diagonalizing with lowered threshold

     Davidson diagonalization with overlap
     c_bands:  1 eigenvalues not converged
     c_bands:  1 eigenvalues not converged
     ethr =  2.18E-05,  avg # of iterations = 16.8

     negative rho (up, down):  2.543E-05 6.746E-05

     total cpu time spent up to now is      711.2 secs

     total energy              =     -22.42448625 Ry
     Harris-Foulkes estimate   =     -22.42073453 Ry
     estimated scf accuracy    <       0.00084955 Ry

     total magnetization       =     0.70 Bohr mag/cell
     absolute magnetization    =     0.70 Bohr mag/cell

     iteration #  2     ecut=   200.00 Ry     beta=0.70
     Davidson diagonalization with overlap
     ethr =  2.12E-05,  avg # of iterations =  3.9

     negative rho (up, down):  7.166E-05 8.093E-05

     total cpu time spent up to now is      890.2 secs

     total energy              =     -22.41747805 Ry
     Harris-Foulkes estimate   =     -22.43502029 Ry
     estimated scf accuracy    <       0.00305290 Ry

     total magnetization       =     2.00 Bohr mag/cell
     absolute magnetization    =     2.00 Bohr mag/cell

     iteration #  3     ecut=   200.00 Ry     beta=0.70
     Davidson diagonalization with overlap
     ethr =  2.12E-05,  avg # of iterations =  1.4

     negative rho (up, down):  8.189E-05 1.263E-04

     total cpu time spent up to now is     1075.1 secs

     total energy              =     -22.41910103 Ry
     Harris-Foulkes estimate   =     -22.42038901 Ry
     estimated scf accuracy    <       0.00015095 Ry

     total magnetization       =    -0.10 Bohr mag/cell
     absolute magnetization    =     0.10 Bohr mag/cell

     iteration #  4     ecut=   200.00 Ry     beta=0.70
     Davidson diagonalization with overlap
     ethr =  3.77E-06,  avg # of iterations =  3.6

     negative rho (up, down):  7.443E-05 1.320E-04

     total cpu time spent up to now is     1249.2 secs

     total energy              =     -22.43116360 Ry
     Harris-Foulkes estimate   =     -22.42750527 Ry
     estimated scf accuracy    <       0.00402521 Ry

     total magnetization       =     2.00 Bohr mag/cell
     absolute magnetization    =     2.00 Bohr mag/cell

     iteration #  5     ecut=   200.00 Ry     beta=0.70
     Davidson diagonalization with overlap
     ethr =  3.77E-06,  avg # of iterations =  1.0

     negative rho (up, down):  4.699E-05 1.250E-04

     total cpu time spent up to now is     1545.6 secs

     total energy              =     -22.44061594 Ry
     Harris-Foulkes estimate   =     -22.43116866 Ry
     estimated scf accuracy    <       0.00354629 Ry

     total magnetization       =     2.00 Bohr mag/cell
     absolute magnetization    =     2.00 Bohr mag/cell

     iteration #  6     ecut=   200.00 Ry     beta=0.70
     Davidson diagonalization with overlap
     ethr =  3.77E-06,  avg # of iterations =  3.1
