
     Program PWSCF v.6.0 (svn rev. 13079) starts on 15Jul2018 at 18:21:24 

     This program is part of the open-source Quantum ESPRESSO suite
     for quantum simulation of materials; please cite
         "P. Giannozzi et al., J. Phys.:Condens. Matter 21 395502 (2009);
          URL http://www.quantum-espresso.org", 
     in publications or presentations arising from this work. More details at
     http://www.quantum-espresso.org/quote

     Serial version
     Waiting for input...
     Reading input from standard input
     Message from routine read_cards :
     DEPRECATED: no units specified in CELL_PARAMETERS card

     Current dimensions of program PWSCF are:
     Max number of different atomic species (ntypx) = 10
     Max number of k-points (npk) =  40000
     Max angular momentum in pseudopotentials (lmaxx) =  3

     Atomic positions and unit cell read from directory:
     ./cr.save/
 
 
     G-vector sticks info
     --------------------
     sticks:   dense  smooth     PW     G-vecs:    dense   smooth      PW
     Sum       15793   15793   4149              1493013  1493013  200597
 


     bravais-lattice index     =            0
     lattice parameter (alat)  =       4.5000  a.u.
     unit-cell volume          =    3906.9844 (a.u.)^3
     number of atoms/cell      =            1
     number of atomic types    =            1
     number of electrons       =         6.00 (up:   6.00, down:   0.00)
     number of Kohn-Sham states=           25
     kinetic-energy cutoff     =     200.0000  Ry
     charge density cutoff     =     800.0000  Ry
     convergence threshold     =      5.0E-06
     mixing beta               =       0.7000
     number of iterations used =            4  local-TF  mixing
     Exchange-correlation      = PZ ( 1  1  0  0 0 0)

     celldm(1)=   4.500000  celldm(2)=   0.000000  celldm(3)=   0.000000
     celldm(4)=   0.000000  celldm(5)=   0.000000  celldm(6)=   0.000000

     crystal axes: (cart. coord. in units of alat)
               a(1) = (   3.500000   0.000000   0.000000 )  
               a(2) = (   0.000000   3.500000   0.000000 )  
               a(3) = (   0.000000   0.000000   3.500000 )  

     reciprocal axes: (cart. coord. in units 2 pi/alat)
               b(1) = (  0.285714  0.000000  0.000000 )  
               b(2) = (  0.000000  0.285714  0.000000 )  
               b(3) = (  0.000000  0.000000  0.285714 )  


     PseudoPot. # 1 for Cr read from file:
     ./Cr.UPF
     MD5 check sum: 553d316c384ac87a787c8da375333cd0
     Pseudo is Norm-conserving + core correction, Zval =  6.0
     Generated using "atomic" code by A. Dal Corso  v.6.0 svn rev. 13079
     Using radial grid of 1183 points,  2 beta functions with: 
                l(1) =   1
                l(2) =   2

     atomic species   valence    mass     pseudopotential
        Cr             6.00    12.00000     Cr( 1.00)

     Starting magnetic structure 
     atomic species   magnetization
        Cr           0.000

     48 Sym. Ops., with inversion, found



   Cartesian axes

     site n.     atom                  positions (alat units)
         1           Cr  tau(   1) = (   1.7500000   1.7500000   1.7500000  )

     number of k points=     4
                       cart. coord. in units 2pi/alat
        k(    1) = (   0.0000000   0.0000000   0.0000000), wk =   0.1250000
        k(    2) = (   0.0000000   0.0000000  -0.1428571), wk =   0.3750000
        k(    3) = (   0.0000000  -0.1428571  -0.1428571), wk =   0.3750000
        k(    4) = (  -0.1428571  -0.1428571  -0.1428571), wk =   0.1250000

     Dense  grid:  1493013 G-vectors     FFT dimensions: ( 141, 141, 141)

     Estimated max dynamical RAM per process >    2288.50Mb
     Generating pointlists ...
     new r_m :   0.4125 (alat units)  1.8563 (a.u.) for type    1
dfftp%nnr =2803221
    141    141    141    141    141    141
SIZE(dfftp%isind) =   19881
bg(1:3,1):   0.2857  0.0000  0.0000
bg(1:3,2):   0.0000  0.2857  0.0000
bg(1:3,3):   0.0000  0.0000  0.2857
at(1:3,1):   3.5000  0.0000  0.0000
at(1:3,2):   0.0000  3.5000  0.0000
at(1:3,3):   0.0000  0.0000  3.5000
nt =     1 na =    1
tau(:,na) =    1.75000   1.75000   1.75000
  k    rho_core(k)
       1   0.00000E+00
       2   0.00000E+00
       3   0.00000E+00
       4   0.00000E+00
       5   0.00000E+00
       6   0.00000E+00
       7   0.00000E+00
       8   0.00000E+00
       9   0.00000E+00
      10   0.00000E+00
      11   0.00000E+00
      12   0.00000E+00
      13   0.00000E+00
      14   0.00000E+00
      15   0.00000E+00
      16   0.00000E+00
      17   0.00000E+00
      18   0.00000E+00
      19   0.00000E+00
      20   0.00000E+00
      21   0.00000E+00
      22   0.00000E+00
      23   0.00000E+00
      24   0.00000E+00
      25   0.00000E+00
      26   0.00000E+00
      27   0.00000E+00
      28   0.00000E+00
      29   0.00000E+00
      30   0.00000E+00
      31   0.00000E+00
      32   0.00000E+00
      33   0.00000E+00
      34   0.00000E+00
      35   0.00000E+00
      36   0.00000E+00
      37   0.00000E+00
      38   0.00000E+00
      39   0.00000E+00
      40   0.00000E+00
      41   0.00000E+00
      42   0.00000E+00
      43   0.00000E+00
      44   0.00000E+00
      45   0.00000E+00
      46   0.00000E+00
      47   0.00000E+00
      48   0.00000E+00
      49   0.00000E+00
      50   0.00000E+00
      51   0.00000E+00
      52   0.00000E+00
      53   0.00000E+00
      54   0.00000E+00
      55   0.00000E+00
      56   0.00000E+00
      57   0.00000E+00
      58   0.00000E+00
      59   0.00000E+00
      60   0.00000E+00
      61   0.00000E+00
      62   0.00000E+00
      63   0.00000E+00
      64   0.00000E+00
      65   0.00000E+00
      66   0.00000E+00
      67   0.00000E+00
      68   0.00000E+00
      69   0.00000E+00
      70   0.00000E+00
      71   0.00000E+00
      72   0.00000E+00
      73   0.00000E+00
      74   0.00000E+00
      75   0.00000E+00
      76   0.00000E+00
      77   0.00000E+00
      78   0.00000E+00
      79   0.00000E+00
      80   0.00000E+00
      81   0.00000E+00
      82   0.00000E+00
      83   0.00000E+00
      84   0.00000E+00
      85   0.00000E+00
      86   0.00000E+00
      87   0.00000E+00
      88   0.00000E+00
      89   0.00000E+00
      90   0.00000E+00
      91   0.00000E+00
      92   0.00000E+00
      93   0.00000E+00
      94   0.00000E+00
      95   0.00000E+00
      96   0.00000E+00
      97   0.00000E+00
      98   0.00000E+00
      99   0.00000E+00
     100   0.00000E+00
     101   0.00000E+00
     102   0.00000E+00
     103   0.00000E+00
     104   0.00000E+00
     105   0.00000E+00
     106   0.00000E+00
     107   0.00000E+00
     108   0.00000E+00
     109   0.00000E+00
     110   0.00000E+00
     111   0.00000E+00
     112   0.00000E+00
     113   0.00000E+00
     114   0.00000E+00
     115   0.00000E+00
     116   0.00000E+00
     117   0.00000E+00
     118   0.00000E+00
     119   0.00000E+00
     120   0.00000E+00
     121   0.00000E+00
     122   0.00000E+00
     123   0.00000E+00
     124   0.00000E+00
     125   0.00000E+00
     126   0.00000E+00
     127   0.00000E+00
     128   0.00000E+00
     129   0.00000E+00
     130   0.00000E+00
     131   0.00000E+00
     132   0.00000E+00
     133   0.00000E+00
     134   0.00000E+00
     135   0.00000E+00
     136   0.00000E+00
     137   0.00000E+00
     138   0.00000E+00
     139   0.00000E+00
     140   0.00000E+00
     141   0.00000E+00
     142   0.00000E+00
     143   0.00000E+00
     144   0.00000E+00
     145   0.00000E+00
     146   0.00000E+00
     147   0.00000E+00
     148   0.00000E+00
     149   0.00000E+00
     150   0.00000E+00
     151   0.00000E+00
     152   0.00000E+00
     153   0.00000E+00
     154   0.00000E+00
     155   0.00000E+00
     156   0.00000E+00
     157   0.00000E+00
     158   0.00000E+00
     159   0.00000E+00
     160   0.00000E+00
     161   0.00000E+00
     162   0.00000E+00
     163   0.00000E+00
     164   0.00000E+00
     165   0.00000E+00
     166   0.00000E+00
     167   0.00000E+00
     168   0.00000E+00
     169   0.00000E+00
     170   0.00000E+00
     171   0.00000E+00
     172   0.00000E+00
     173   0.00000E+00
     174   0.00000E+00
     175   0.00000E+00
     176   0.00000E+00
     177   0.00000E+00
     178   0.00000E+00
     179   0.00000E+00
     180   0.00000E+00
     181   0.00000E+00
     182   0.00000E+00
     183   0.00000E+00
     184   0.00000E+00
     185   0.00000E+00
     186   0.00000E+00
     187   0.00000E+00
     188   0.00000E+00
     189   0.00000E+00
     190   0.00000E+00
     191   0.00000E+00
     192   0.00000E+00
     193   0.00000E+00
     194   0.00000E+00
     195   0.00000E+00
     196   0.00000E+00
     197   0.00000E+00
     198   0.00000E+00
     199   0.00000E+00
     200   0.00000E+00
     201   0.00000E+00
     202   0.00000E+00
     203   0.00000E+00
     204   0.00000E+00
     205   0.00000E+00
     206   0.00000E+00
     207   0.00000E+00
     208   0.00000E+00
     209   0.00000E+00
     210   0.00000E+00
     211   0.00000E+00
     212   0.00000E+00
     213   0.00000E+00
     214   0.00000E+00
     215   0.00000E+00
     216   0.00000E+00
     217   0.00000E+00
     218   0.00000E+00
     219   0.00000E+00
     220   0.00000E+00
     221   0.00000E+00
     222   0.00000E+00
     223   0.00000E+00
     224   0.00000E+00
     225   0.00000E+00
     226   0.00000E+00
     227   0.00000E+00
     228   0.00000E+00
     229   0.00000E+00
     230   0.00000E+00
     231   0.00000E+00
     232   0.00000E+00
     233   0.00000E+00
     234   0.00000E+00
     235   0.00000E+00
     236   0.00000E+00
     237   0.00000E+00
     238   0.00000E+00
     239   0.00000E+00
     240   0.00000E+00
     241   0.00000E+00
     242   0.00000E+00
     243   0.00000E+00
     244   0.00000E+00
     245   0.00000E+00
     246   0.00000E+00
     247   0.00000E+00
     248   0.00000E+00
     249   0.00000E+00
     250   0.00000E+00
     251   0.00000E+00
     252   0.00000E+00
     253   0.00000E+00
     254   0.00000E+00
     255   0.00000E+00
     256   0.00000E+00
     257   0.00000E+00
     258   0.00000E+00
     259   0.00000E+00
     260   0.00000E+00
     261   0.00000E+00
     262   0.00000E+00
     263   0.00000E+00
     264   0.00000E+00
     265   0.00000E+00
     266   0.00000E+00
     267   0.00000E+00
     268   0.00000E+00
     269   0.00000E+00
     270   0.00000E+00
     271   0.00000E+00
     272   0.00000E+00
     273   0.00000E+00
     274   0.00000E+00
     275   0.00000E+00
     276   0.00000E+00
     277   0.00000E+00
     278   0.00000E+00
     279   0.00000E+00
     280   0.00000E+00
     281   0.00000E+00
     282   0.00000E+00
     283   0.00000E+00
     284   0.00000E+00
     285   0.00000E+00
     286   0.00000E+00
     287   0.00000E+00
     288   0.00000E+00
     289   0.00000E+00
     290   0.00000E+00
     291   0.00000E+00
     292   0.00000E+00
     293   0.00000E+00
     294   0.00000E+00
     295   0.00000E+00
     296   0.00000E+00
     297   0.00000E+00
     298   0.00000E+00
     299   0.00000E+00
     300   0.00000E+00
  ------------ 
  k    averhoc
           1  5.029510952178197E-014
           2  5.477761897959946E-014
           3  6.901125596800293E-014
           4  9.553023449446951E-014
           5  1.391427478130004E-013
           6  2.076630099346213E-013
           7  3.133083304876209E-013
           8  4.746747082316042E-013
           9  7.210182205615584E-013
          10  1.096848748001658E-012
          11  1.668760468818116E-012
          12  2.538356748339951E-012
          13  3.865172769235704E-012
          14  5.883648602391402E-012
          15  8.956267188087568E-012
          16  1.364218310712348E-011
          17  2.076877283977102E-011
          18  3.164554378681712E-011
          19  4.818645872820234E-011
          20  7.344398196027529E-011
          21  1.118750135932526E-010
          22  1.705214919820518E-010
          23  2.599229045305412E-010
          24  3.961559305050957E-010
          25  6.041896201858524E-010
          26  9.215128933308900E-010
          27  1.405460057151498E-009
          28  2.143888931945869E-009
          29  3.271995954509405E-009
          30  4.994205466416983E-009
          31  7.625357425975376E-009
          32  1.164555673369400E-008
          33  1.778883131012878E-008
          34  2.718227058368081E-008
          35  4.154952318784754E-008
          36  6.353783441854099E-008
          37  9.719865462759036E-008
          38  1.487155325629251E-007
          39  2.276797785583528E-007
          40  3.486918262131903E-007
          41  5.343401619739458E-007
          42  8.191142264539663E-007
          43  1.256196672611671E-006
          44  1.927912793980427E-006
          45  2.959890543169613E-006
          46  4.547777636154342E-006
          47  6.990807566023961E-006
          48  1.075089257177125E-005
          49  1.654283954827596E-005
          50  2.546504636699163E-005
          51  3.921812197229503E-005
          52  6.040933106844672E-005
          53  9.304463534206836E-005
          54  1.432824481896195E-004
          55  2.204791973920487E-004
          56  3.388932444388527E-004
          57  5.197374246704641E-004
          58  7.945658137775952E-004
          59  1.209000241730204E-003
          60  1.826931965344305E-003
          61  2.733861957434385E-003
          62  4.034007433276126E-003
          63  5.827974437741047E-003
          64  8.080197490714916E-003
          65  1.063287135007309E-002
          66  1.330511601318256E-002
          67  1.590617407952129E-002
          68  1.825077596988657E-002
          69  2.017384866644821E-002
          70  2.153668811269549E-002
          71  2.224316708357907E-002
          72  2.224316708357907E-002
          73  2.153668811269549E-002
          74  2.017384866644821E-002
          75  1.825077596988657E-002
          76  1.590617407952129E-002
          77  1.330511601318256E-002
          78  1.063287135007309E-002
          79  8.080197490714916E-003
          80  5.827974437741047E-003
          81  4.034007433276126E-003
          82  2.733861957434396E-003
          83  1.826931965344305E-003
          84  1.209000241730204E-003
          85  7.945658137775932E-004
          86  5.197374246704617E-004
          87  3.388932444388539E-004
          88  2.204791973920487E-004
          89  1.432824481896195E-004
          90  9.304463534206815E-005
          91  6.040933106844692E-005
          92  3.921812197229522E-005
          93  2.546504636699163E-005
          94  1.654283954827596E-005
          95  1.075089257177120E-005
          96  6.990807566023977E-006
          97  4.547777636154356E-006
          98  2.959890543169613E-006
          99  1.927912793980427E-006
         100  1.256196672611668E-006
         101  8.191142264539702E-007
         102  5.343401619739462E-007
         103  3.486918262131903E-007
         104  2.276797785583523E-007
         105  1.487155325629244E-007
         106  9.719865462759068E-008
         107  6.353783441854119E-008
         108  4.154952318784754E-008
         109  2.718227058368071E-008
         110  1.778883131012874E-008
         111  1.164555673369406E-008
         112  7.625357425975376E-009
         113  4.994205466416983E-009
         114  3.271995954509405E-009
         115  2.143888931945861E-009
         116  1.405460057151498E-009
         117  9.215128933308900E-010
         118  6.041896201858524E-010
         119  3.961559305050957E-010
         120  2.599229045305405E-010
         121  1.705214919820518E-010
         122  1.118750135932526E-010
         123  7.344398196027529E-011
         124  4.818645872820234E-011
         125  3.164554378681724E-011
         126  2.076877283977102E-011
         127  1.364218310712348E-011
         128  8.956267188087568E-012
         129  5.883648602391392E-012
         130  3.865172769235712E-012
         131  2.538356748339951E-012
         132  1.668760468818116E-012
         133  1.096848748001658E-012
         134  7.210182205615559E-013
         135  4.746747082316052E-013
         136  3.133083304876209E-013
         137  2.076630099346213E-013
         138  1.391427478130004E-013
         139  9.553023449446913E-014
         140  6.901125596800297E-014
         141  5.477761897959946E-014
  ------------ 
  k    rhog_core(k)
       1   0.20999E-02   0.00000E+00
       2  -0.20430E-02  -0.46235E-20
       3  -0.20430E-02  -0.13522E-19
       4  -0.20430E-02   0.15385E-19
       5  -0.20430E-02  -0.45104E-19
       6  -0.20430E-02  -0.41956E-19
       7  -0.20430E-02  -0.43360E-19
       8   0.19878E-02  -0.39357E-21
       9   0.19878E-02  -0.21743E-19
      10   0.19878E-02   0.35102E-19
      11   0.19878E-02   0.46854E-19
      12   0.19878E-02  -0.15233E-19
      13   0.19878E-02   0.36817E-19
      14   0.19878E-02   0.29441E-19
      15   0.19878E-02   0.68587E-19
      16   0.19878E-02   0.38743E-19
      17   0.19878E-02  -0.90614E-20
      18   0.19878E-02   0.73104E-19
      19   0.19878E-02   0.85185E-19
      20  -0.19342E-02  -0.32459E-19
      21  -0.19342E-02  -0.45695E-19
      22  -0.19342E-02  -0.75729E-19
      23  -0.19342E-02  -0.81926E-19
      24  -0.19342E-02  -0.42049E-19
      25  -0.19342E-02  -0.78413E-19
      26  -0.19342E-02  -0.11776E-18
      27  -0.19342E-02  -0.12169E-18
      28   0.18822E-02   0.83873E-19
      29   0.18822E-02   0.79098E-19
      30   0.18822E-02   0.14700E-18
      31   0.18822E-02  -0.39488E-19
      32   0.18822E-02  -0.30965E-19
      33   0.18822E-02  -0.27011E-19
      34  -0.18317E-02  -0.78655E-19
      35  -0.18317E-02  -0.11211E-18
      36  -0.18317E-02  -0.11967E-18
      37  -0.18317E-02  -0.11742E-18
      38  -0.18317E-02  -0.76952E-19
      39  -0.18317E-02  -0.68484E-19
      40  -0.18317E-02   0.25427E-19
      41  -0.18317E-02   0.21665E-19
      42  -0.18317E-02  -0.11075E-18
      43  -0.18317E-02  -0.99712E-19
      44  -0.18317E-02  -0.76775E-19
      45  -0.18317E-02   0.45937E-19
      46  -0.18317E-02  -0.12156E-18
      47  -0.18317E-02  -0.28431E-19
      48  -0.18317E-02   0.27265E-20
      49  -0.18317E-02  -0.12950E-20
      50  -0.18317E-02  -0.11579E-18
      51  -0.18317E-02  -0.12044E-18
      52  -0.18317E-02  -0.61706E-20
      53  -0.18317E-02  -0.15811E-19
      54  -0.18317E-02   0.30061E-19
      55  -0.18317E-02  -0.30320E-20
      56  -0.18317E-02  -0.49291E-20
      57  -0.18317E-02  -0.97268E-20
      58   0.17827E-02   0.67898E-19
      59   0.17827E-02   0.10863E-18
      60   0.17827E-02   0.12684E-18
      61   0.17827E-02   0.15227E-18
      62   0.17827E-02   0.75442E-19
      63   0.17827E-02   0.11584E-18
      64   0.17827E-02   0.15238E-18
      65   0.17827E-02  -0.87240E-19
      66   0.17827E-02   0.16018E-18
      67   0.17827E-02  -0.13533E-19
      68   0.17827E-02  -0.27532E-19
      69   0.17827E-02   0.20547E-21
      70   0.17827E-02   0.95335E-19
      71   0.17827E-02   0.14586E-18
      72   0.17827E-02   0.15603E-18
      73   0.17827E-02  -0.41878E-19
      74   0.17827E-02   0.20036E-18
      75   0.17827E-02   0.16110E-19
      76   0.17827E-02  -0.21178E-19
      77   0.17827E-02   0.49427E-19
      78   0.17827E-02  -0.29831E-19
      79   0.17827E-02   0.19848E-19
      80   0.17827E-02  -0.27105E-19
      81   0.17827E-02   0.43810E-19
      82   0.16888E-02   0.15406E-18
      83   0.16888E-02   0.16570E-18
      84   0.16888E-02   0.11146E-19
      85   0.16888E-02   0.43603E-19
      86   0.16888E-02   0.16983E-18
      87   0.16888E-02   0.78490E-20
      88   0.16888E-02   0.88312E-19
      89   0.16888E-02  -0.87991E-19
      90   0.16888E-02   0.62415E-19
      91   0.16888E-02   0.94758E-19
      92   0.16888E-02  -0.74997E-19
      93   0.16888E-02  -0.45619E-19
      94  -0.16438E-02   0.18594E-19
      95  -0.16438E-02  -0.16896E-18
      96  -0.16438E-02  -0.17313E-18
      97  -0.16438E-02  -0.12629E-18
      98  -0.16438E-02  -0.57517E-19
      99  -0.16438E-02  -0.17836E-18
     100  -0.16438E-02  -0.84319E-19
 1492913   0.20673E-07   0.48650E-20
 1492914   0.20673E-07   0.81827E-20
 1492915   0.20673E-07   0.48453E-20
 1492916   0.20673E-07   0.21277E-20
 1492917   0.20673E-07   0.13731E-20
 1492918   0.28480E-07   0.57615E-22
 1492919   0.28480E-07   0.56825E-21
 1492920   0.28480E-07   0.23342E-20
 1492921   0.28480E-07  -0.15547E-20
 1492922   0.28480E-07   0.27238E-20
 1492923   0.28480E-07  -0.11799E-20
 1492924   0.28480E-07  -0.26882E-20
 1492925   0.28480E-07  -0.21828E-20
 1492926   0.31676E-07   0.10592E-20
 1492927   0.31676E-07   0.98641E-21
 1492928   0.31676E-07   0.77609E-21
 1492929   0.31676E-07  -0.12550E-21
 1492930   0.31676E-07  -0.57029E-21
 1492931   0.31676E-07  -0.14259E-20
 1492932   0.31676E-07  -0.15505E-21
 1492933   0.31676E-07  -0.21882E-21
 1492934   0.26323E-07   0.61245E-20
 1492935   0.26323E-07   0.76387E-20
 1492936   0.26323E-07   0.66840E-20
 1492937   0.26323E-07   0.61787E-20
 1492938   0.26323E-07   0.75524E-20
 1492939   0.26323E-07   0.69940E-20
 1492940   0.26323E-07   0.46441E-20
 1492941   0.26323E-07   0.61189E-20
 1492942   0.26323E-07   0.53742E-21
 1492943   0.26323E-07   0.27881E-20
 1492944   0.28480E-07   0.26135E-21
 1492945   0.28480E-07   0.83748E-21
 1492946   0.20673E-07   0.21593E-20
 1492947   0.20673E-07   0.16113E-20
 1492948   0.20673E-07   0.31371E-20
 1492949   0.20673E-07   0.37125E-20
 1492950   0.28480E-07   0.74627E-21
 1492951   0.28480E-07   0.19190E-20
 1492952   0.26323E-07  -0.32262E-21
 1492953   0.26323E-07  -0.53814E-21
 1492954   0.26323E-07   0.10276E-21
 1492955   0.26323E-07  -0.60133E-22
 1492956   0.28480E-07   0.12780E-20
 1492957   0.28480E-07   0.24571E-20
 1492958   0.20673E-07   0.13792E-20
 1492959   0.20673E-07   0.18334E-20
 1492960   0.20673E-07   0.39766E-20
 1492961   0.20673E-07   0.33044E-20
 1492962   0.28480E-07   0.20773E-20
 1492963   0.28480E-07   0.26577E-20
 1492964   0.26323E-07  -0.40115E-21
 1492965   0.26323E-07   0.19110E-20
 1492966   0.35497E-07  -0.30678E-22
 1492967   0.35497E-07  -0.36451E-21
 1492968   0.35497E-07   0.27777E-21
 1492969   0.35497E-07  -0.11316E-20
 1492970   0.35497E-07  -0.49387E-21
 1492971   0.35497E-07  -0.18529E-20
 1492972   0.35497E-07  -0.14157E-20
 1492973   0.35497E-07  -0.17086E-20
 1492974   0.24929E-07   0.20628E-21
 1492975   0.24929E-07  -0.57338E-21
 1492976   0.14555E-07   0.17551E-20
 1492977   0.14555E-07   0.25046E-20
 1492978   0.14555E-07   0.20008E-20
 1492979   0.14555E-07   0.21016E-20
 1492980   0.24929E-07   0.33928E-21
 1492981   0.24929E-07   0.11446E-20
 1492982   0.24929E-07  -0.15152E-20
 1492983   0.24929E-07  -0.70855E-21
 1492984   0.14555E-07   0.25436E-20
 1492985   0.14555E-07   0.26534E-20
 1492986   0.14555E-07   0.16479E-20
 1492987   0.14555E-07   0.24072E-20
 1492988   0.24929E-07   0.21152E-20
 1492989   0.24929E-07   0.13393E-20
 1492990   0.26815E-07  -0.39011E-21
 1492991   0.26815E-07  -0.81850E-21
 1492992   0.26815E-07   0.16706E-21
 1492993   0.26815E-07   0.11893E-20
 1492994   0.26815E-07   0.12844E-21
 1492995   0.26815E-07   0.11252E-20
 1492996   0.26815E-07   0.67754E-21
 1492997   0.26815E-07   0.21493E-21
 1492998   0.31728E-07  -0.71326E-21
 1492999   0.31728E-07  -0.68437E-21
 1493000   0.27584E-07  -0.23971E-21
 1493001   0.27584E-07  -0.20566E-21
 1493002   0.27584E-07  -0.50719E-22
 1493003   0.27584E-07   0.80021E-22
 1493004   0.31728E-07   0.22198E-21
 1493005   0.31728E-07   0.53174E-21
 1493006   0.31728E-07   0.23193E-21
 1493007   0.31728E-07   0.50434E-21
 1493008   0.27584E-07  -0.38155E-22
 1493009   0.27584E-07   0.73123E-22
 1493010   0.27584E-07  -0.17197E-21
 1493011   0.27584E-07  -0.15890E-21
 1493012   0.31728E-07  -0.82321E-21
 1493013   0.31728E-07  -0.83115E-21
  ------------ 

     The initial density is read from file :
     ./cr.save/charge-density.dat


     negative rho (up, down):  0.000E+00 2.337E-04
     Starting wfc from file
     Calculation restarted from scf iteration #     7

     total cpu time spent up to now is       68.3 secs

     per-process dynamical memory:   824.8 Mb

     Self-consistent Calculation

     iteration #  7     ecut=   200.00 Ry     beta=0.70
     Calculation restarted from end of k-point loop
     Davidson diagonalization with overlap
     ethr =  1.09E-07,  avg # of iterations =  7.1
 
     Magnetic moment per site:
     atom:    1    charge:    4.1028    magn:    4.1028    constr:    0.0000

     total cpu time spent up to now is      134.4 secs

     End of self-consistent calculation

 ------ SPIN UP ------------


          k = 0.0000 0.0000 0.0000 (186623 PWs)   bands (ev):

    -4.2584  -3.4818  -3.4818  -3.4778  -3.4778  -3.4778  -0.7488  -0.7488
    -0.7488  -0.0067   1.2807   1.2807   2.4501   2.4501   2.4501   2.7492
     2.9676   2.9676   2.9676   3.4883   3.4883   3.4883   3.5947   3.5947
     5.2724

          k = 0.0000 0.0000-0.1429 (186630 PWs)   bands (ev):

    -4.2376  -3.4817  -3.4789  -3.4789  -3.4781  -3.4777  -1.1495  -0.7050
    -0.7050   0.5618   1.0341   1.5524   1.9052   1.9052   2.2187   2.9005
     3.1025   3.1025   3.1637   3.2658   3.6387   4.1080   4.1685   4.1685
     4.1731

          k = 0.0000-0.1429-0.1429 (186716 PWs)   bands (ev):

    -4.2180  -3.4802  -3.4797  -3.4788  -3.4788  -3.4762  -1.0604  -1.0604
    -0.6662   0.6330   1.1855   1.6508   1.6508   2.1871   2.1871   2.8050
     2.8152   3.0809   3.0809   3.2545   3.6757   4.3959   4.6010   4.6010
     4.8877

          k =-0.1429-0.1429-0.1429 (186352 PWs)   bands (ev):

    -4.1995  -3.4800  -3.4800  -3.4800  -3.4761  -3.4761  -0.9881  -0.9881
    -0.9881   1.0043   1.0043   1.0043   1.3782   2.5279   2.5279   2.5279
     2.9800   3.8335   3.8335   4.5643   4.5643   4.5643   4.8031   4.8031
     4.8031

 ------ SPIN DOWN ----------


          k = 0.0000 0.0000 0.0000 (186623 PWs)   bands (ev):

    -2.1194   0.3473   0.3473   0.4349   0.4349   0.4349   0.4383   0.6733
     0.6733   0.6733   1.7585   1.7585   2.9476   2.9476   2.9476   3.1230
     3.6539   3.6539   3.6539   3.7230   3.7230   3.7230   3.8595   3.8595
     5.6118

          k = 0.0000 0.0000-0.1429 (186630 PWs)   bands (ev):

    -2.0355  -0.2525   0.3631   0.4031   0.4087   0.4087   0.4371   0.8175
     0.8175   1.0992   1.7016   2.1382   2.3000   2.3000   2.3394   3.5017
     3.5775   3.5775   3.8082   4.0061   4.1889   4.3306   4.3733   4.4427
     4.4427

          k = 0.0000-0.1429-0.1429 (186716 PWs)   bands (ev):

    -1.9628   0.0032   0.0032   0.2915   0.3920   0.4146   0.4146   0.4530
     0.9377   0.9531   1.8173   2.2826   2.2826   2.6978   2.6978   2.9243
     2.9751   3.7037   3.7037   4.1408   4.5661   4.8623   4.8623   4.8879
     5.0136

          k =-0.1429-0.1429-0.1429 (186352 PWs)   bands (ev):

    -1.8982   0.2135   0.2135   0.2135   0.3452   0.3452   0.3452   0.4542
     0.4542   1.3534   1.3534   1.3534   1.4298   3.5760   3.5760   3.5760
     3.9290   4.8947   4.8947   5.1727   5.1727   5.1727   5.2690   5.2690
     5.2690

     highest occupied, lowest unoccupied level (ev):    -3.4761   -2.1194

!    total energy              =     -32.69103854 Ry
     Harris-Foulkes estimate   =     -32.69102709 Ry
     estimated scf accuracy    <       0.00000059 Ry

     The total energy is the sum of the following terms:

     one-electron contribution =     -19.42137051 Ry
     hartree contribution      =      13.54392075 Ry
     xc contribution           =     -20.32833741 Ry
     ewald contribution        =      -6.48525138 Ry

     total magnetization       =     6.00 Bohr mag/cell
     absolute magnetization    =     6.00 Bohr mag/cell

     convergence has been achieved in   7 iterations

     Forces acting on atoms (Ry/au):

     atom    1 type  1   force =     0.00000000    0.00000000    0.00000000

     Total force =     0.000000     Total SCF correction =     0.000000


     entering subroutine stress ...

          total   stress  (Ry/bohr**3)                   (kbar)     P=   -0.06
  -0.00000042   0.00000000   0.00000000         -0.06      0.00      0.00
   0.00000000  -0.00000042   0.00000000          0.00     -0.06      0.00
   0.00000000   0.00000000  -0.00000042          0.00      0.00     -0.06


     Writing output data file cr.save
 
     init_run     :     22.55s CPU     66.88s WALL (       1 calls)
     electrons    :     44.40s CPU     66.66s WALL (       1 calls)
     forces       :      2.24s CPU      2.58s WALL (       1 calls)
     stress       :     10.86s CPU     13.74s WALL (       1 calls)

     Called by init_run:
     wfcinit      :      0.00s CPU      0.00s WALL (       1 calls)
     potinit      :      1.16s CPU      1.65s WALL (       1 calls)

     Called by electrons:
     c_bands      :      0.11s CPU      1.41s WALL (       1 calls)
     sum_band     :     43.40s CPU     63.83s WALL (       1 calls)
     v_of_rho     :      1.10s CPU      1.18s WALL (       2 calls)
     mix_rho      :      0.04s CPU      0.09s WALL (       1 calls)

     Called by c_bands:
     init_us_2    :      0.62s CPU      1.19s WALL (      24 calls)

     Called by sum_band:

     Called by *egterg:

     Called by h_psi:

     General routines
     calbec       :      0.70s CPU      0.74s WALL (      40 calls)
     fft          :      3.28s CPU      3.40s WALL (      18 calls)
     fftw         :     36.43s CPU     36.47s WALL (     200 calls)
     davcio       :      0.02s CPU      3.77s WALL (      16 calls)
 
 
     PWSCF        :  1m20.52s CPU     2m35.38s WALL

 
   This run was terminated on:  18:23:59  15Jul2018            

=------------------------------------------------------------------------------=
   JOB DONE.
=------------------------------------------------------------------------------=
