
     Program PWSCF v.6.0 (svn rev. 13079) starts on 15Jul2018 at 16: 4: 7 

     This program is part of the open-source Quantum ESPRESSO suite
     for quantum simulation of materials; please cite
         "P. Giannozzi et al., J. Phys.:Condens. Matter 21 395502 (2009);
          URL http://www.quantum-espresso.org", 
     in publications or presentations arising from this work. More details at
     http://www.quantum-espresso.org/quote

     Serial version
     Waiting for input...
     Reading input from standard input
     Message from routine read_cards :
     DEPRECATED: no units specified in CELL_PARAMETERS card

     Current dimensions of program PWSCF are:
     Max number of different atomic species (ntypx) = 10
     Max number of k-points (npk) =  40000
     Max angular momentum in pseudopotentials (lmaxx) =  3

     Atomic positions and unit cell read from directory:
     ./cr.save/
 
 
     G-vector sticks info
     --------------------
     sticks:   dense  smooth     PW     G-vecs:    dense   smooth      PW
     Sum       15793   15793   4149              1493013  1493013  200597
 


     bravais-lattice index     =            0
     lattice parameter (alat)  =       4.5000  a.u.
     unit-cell volume          =    3906.9844 (a.u.)^3
     number of atoms/cell      =            1
     number of atomic types    =            1
     number of electrons       =         6.00 (up:   6.00, down:   0.00)
     number of Kohn-Sham states=           25
     kinetic-energy cutoff     =     200.0000  Ry
     charge density cutoff     =     800.0000  Ry
     convergence threshold     =      5.0E-06
     mixing beta               =       0.7000
     number of iterations used =            4  local-TF  mixing
     Exchange-correlation      = PZ ( 1  1  0  0 0 0)

     celldm(1)=   4.500000  celldm(2)=   0.000000  celldm(3)=   0.000000
     celldm(4)=   0.000000  celldm(5)=   0.000000  celldm(6)=   0.000000

     crystal axes: (cart. coord. in units of alat)
               a(1) = (   3.500000   0.000000   0.000000 )  
               a(2) = (   0.000000   3.500000   0.000000 )  
               a(3) = (   0.000000   0.000000   3.500000 )  

     reciprocal axes: (cart. coord. in units 2 pi/alat)
               b(1) = (  0.285714  0.000000  0.000000 )  
               b(2) = (  0.000000  0.285714  0.000000 )  
               b(3) = (  0.000000  0.000000  0.285714 )  


     PseudoPot. # 1 for Cr read from file:
     ./Cr.UPF
     MD5 check sum: 7b352171a14d1694253dbf7eab382c12
     Pseudo is Norm-conserving + core correction, Zval =  6.0
     Generated using "atomic" code by A. Dal Corso  v.6.0 svn rev. 13079
     Using radial grid of 1183 points,  2 beta functions with: 
                l(1) =   1
                l(2) =   2

     atomic species   valence    mass     pseudopotential
        Cr             6.00    12.00000     Cr( 1.00)

     Starting magnetic structure 
     atomic species   magnetization
        Cr           0.000

     48 Sym. Ops., with inversion, found



   Cartesian axes

     site n.     atom                  positions (alat units)
         1           Cr  tau(   1) = (   1.7500000   1.7500000   1.7500000  )

     number of k points=     4
                       cart. coord. in units 2pi/alat
        k(    1) = (   0.0000000   0.0000000   0.0000000), wk =   0.1250000
        k(    2) = (   0.0000000   0.0000000  -0.1428571), wk =   0.3750000
        k(    3) = (   0.0000000  -0.1428571  -0.1428571), wk =   0.3750000
        k(    4) = (  -0.1428571  -0.1428571  -0.1428571), wk =   0.1250000

     Dense  grid:  1493013 G-vectors     FFT dimensions: ( 141, 141, 141)

     Estimated max dynamical RAM per process >    2288.50Mb
     Generating pointlists ...
     new r_m :   0.4125 (alat units)  1.8563 (a.u.) for type    1
dfftp%nnr =2803221
    141    141    141    141    141    141
SIZE(dfftp%isind) =   19881
bg(1:3,1):   0.2857  0.0000  0.0000
bg(1:3,2):   0.0000  0.2857  0.0000
bg(1:3,3):   0.0000  0.0000  0.2857
at(1:3,1):   3.5000  0.0000  0.0000
at(1:3,2):   0.0000  3.5000  0.0000
at(1:3,3):   0.0000  0.0000  3.5000
nt =     1 na =    1
tau(:,na) =    1.75000   1.75000   1.75000
  k    rho_core(k)
       1   0.00000E+00
       2   0.00000E+00
       3   0.00000E+00
       4   0.00000E+00
       5   0.00000E+00
       6   0.00000E+00
       7   0.00000E+00
       8   0.00000E+00
       9   0.00000E+00
      10   0.00000E+00
      11   0.00000E+00
      12   0.00000E+00
      13   0.00000E+00
      14   0.00000E+00
      15   0.00000E+00
      16   0.00000E+00
      17   0.00000E+00
      18   0.00000E+00
      19   0.00000E+00
      20   0.00000E+00
      21   0.00000E+00
      22   0.00000E+00
      23   0.00000E+00
      24   0.00000E+00
      25   0.00000E+00
      26   0.00000E+00
      27   0.00000E+00
      28   0.00000E+00
      29   0.00000E+00
      30   0.00000E+00
      31   0.00000E+00
      32   0.00000E+00
      33   0.00000E+00
      34   0.00000E+00
      35   0.00000E+00
      36   0.00000E+00
      37   0.00000E+00
      38   0.00000E+00
      39   0.00000E+00
      40   0.00000E+00
      41   0.00000E+00
      42   0.00000E+00
      43   0.00000E+00
      44   0.00000E+00
      45   0.00000E+00
      46   0.00000E+00
      47   0.00000E+00
      48   0.00000E+00
      49   0.00000E+00
      50   0.00000E+00
      51   0.00000E+00
      52   0.00000E+00
      53   0.00000E+00
      54   0.00000E+00
      55   0.00000E+00
      56   0.00000E+00
      57   0.00000E+00
      58   0.00000E+00
      59   0.00000E+00
      60   0.00000E+00
      61   0.00000E+00
      62   0.00000E+00
      63   0.00000E+00
      64   0.00000E+00
      65   0.00000E+00
      66   0.00000E+00
      67   0.00000E+00
      68   0.00000E+00
      69   0.00000E+00
      70   0.00000E+00
      71   0.00000E+00
      72   0.00000E+00
      73   0.00000E+00
      74   0.00000E+00
      75   0.00000E+00
      76   0.00000E+00
      77   0.00000E+00
      78   0.00000E+00
      79   0.00000E+00
      80   0.00000E+00
      81   0.00000E+00
      82   0.00000E+00
      83   0.00000E+00
      84   0.00000E+00
      85   0.00000E+00
      86   0.00000E+00
      87   0.00000E+00
      88   0.00000E+00
      89   0.00000E+00
      90   0.00000E+00
      91   0.00000E+00
      92   0.00000E+00
      93   0.00000E+00
      94   0.00000E+00
      95   0.00000E+00
      96   0.00000E+00
      97   0.00000E+00
      98   0.00000E+00
      99   0.00000E+00
     100   0.00000E+00
     101   0.00000E+00
     102   0.00000E+00
     103   0.00000E+00
     104   0.00000E+00
     105   0.00000E+00
     106   0.00000E+00
     107   0.00000E+00
     108   0.00000E+00
     109   0.00000E+00
     110   0.00000E+00
     111   0.00000E+00
     112   0.00000E+00
     113   0.00000E+00
     114   0.00000E+00
     115   0.00000E+00
     116   0.00000E+00
     117   0.00000E+00
     118   0.00000E+00
     119   0.00000E+00
     120   0.00000E+00
     121   0.00000E+00
     122   0.00000E+00
     123   0.00000E+00
     124   0.00000E+00
     125   0.00000E+00
     126   0.00000E+00
     127   0.00000E+00
     128   0.00000E+00
     129   0.00000E+00
     130   0.00000E+00
     131   0.00000E+00
     132   0.00000E+00
     133   0.00000E+00
     134   0.00000E+00
     135   0.00000E+00
     136   0.00000E+00
     137   0.00000E+00
     138   0.00000E+00
     139   0.00000E+00
     140   0.00000E+00
     141   0.00000E+00
     142   0.00000E+00
     143   0.00000E+00
     144   0.00000E+00
     145   0.00000E+00
     146   0.00000E+00
     147   0.00000E+00
     148   0.00000E+00
     149   0.00000E+00
     150   0.00000E+00
     151   0.00000E+00
     152   0.00000E+00
     153   0.00000E+00
     154   0.00000E+00
     155   0.00000E+00
     156   0.00000E+00
     157   0.00000E+00
     158   0.00000E+00
     159   0.00000E+00
     160   0.00000E+00
     161   0.00000E+00
     162   0.00000E+00
     163   0.00000E+00
     164   0.00000E+00
     165   0.00000E+00
     166   0.00000E+00
     167   0.00000E+00
     168   0.00000E+00
     169   0.00000E+00
     170   0.00000E+00
     171   0.00000E+00
     172   0.00000E+00
     173   0.00000E+00
     174   0.00000E+00
     175   0.00000E+00
     176   0.00000E+00
     177   0.00000E+00
     178   0.00000E+00
     179   0.00000E+00
     180   0.00000E+00
     181   0.00000E+00
     182   0.00000E+00
     183   0.00000E+00
     184   0.00000E+00
     185   0.00000E+00
     186   0.00000E+00
     187   0.00000E+00
     188   0.00000E+00
     189   0.00000E+00
     190   0.00000E+00
     191   0.00000E+00
     192   0.00000E+00
     193   0.00000E+00
     194   0.00000E+00
     195   0.00000E+00
     196   0.00000E+00
     197   0.00000E+00
     198   0.00000E+00
     199   0.00000E+00
     200   0.00000E+00
     201   0.00000E+00
     202   0.00000E+00
     203   0.00000E+00
     204   0.00000E+00
     205   0.00000E+00
     206   0.00000E+00
     207   0.00000E+00
     208   0.00000E+00
     209   0.00000E+00
     210   0.00000E+00
     211   0.00000E+00
     212   0.00000E+00
     213   0.00000E+00
     214   0.00000E+00
     215   0.00000E+00
     216   0.00000E+00
     217   0.00000E+00
     218   0.00000E+00
     219   0.00000E+00
     220   0.00000E+00
     221   0.00000E+00
     222   0.00000E+00
     223   0.00000E+00
     224   0.00000E+00
     225   0.00000E+00
     226   0.00000E+00
     227   0.00000E+00
     228   0.00000E+00
     229   0.00000E+00
     230   0.00000E+00
     231   0.00000E+00
     232   0.00000E+00
     233   0.00000E+00
     234   0.00000E+00
     235   0.00000E+00
     236   0.00000E+00
     237   0.00000E+00
     238   0.00000E+00
     239   0.00000E+00
     240   0.00000E+00
     241   0.00000E+00
     242   0.00000E+00
     243   0.00000E+00
     244   0.00000E+00
     245   0.00000E+00
     246   0.00000E+00
     247   0.00000E+00
     248   0.00000E+00
     249   0.00000E+00
     250   0.00000E+00
     251   0.00000E+00
     252   0.00000E+00
     253   0.00000E+00
     254   0.00000E+00
     255   0.00000E+00
     256   0.00000E+00
     257   0.00000E+00
     258   0.00000E+00
     259   0.00000E+00
     260   0.00000E+00
     261   0.00000E+00
     262   0.00000E+00
     263   0.00000E+00
     264   0.00000E+00
     265   0.00000E+00
     266   0.00000E+00
     267   0.00000E+00
     268   0.00000E+00
     269   0.00000E+00
     270   0.00000E+00
     271   0.00000E+00
     272   0.00000E+00
     273   0.00000E+00
     274   0.00000E+00
     275   0.00000E+00
     276   0.00000E+00
     277   0.00000E+00
     278   0.00000E+00
     279   0.00000E+00
     280   0.00000E+00
     281   0.00000E+00
     282   0.00000E+00
     283   0.00000E+00
     284   0.00000E+00
     285   0.00000E+00
     286   0.00000E+00
     287   0.00000E+00
     288   0.00000E+00
     289   0.00000E+00
     290   0.00000E+00
     291   0.00000E+00
     292   0.00000E+00
     293   0.00000E+00
     294   0.00000E+00
     295   0.00000E+00
     296   0.00000E+00
     297   0.00000E+00
     298   0.00000E+00
     299   0.00000E+00
     300   0.00000E+00
  ------------ 
  k    averhoc
           1  5.029510952178197E-014
           2  5.477761897959946E-014
           3  6.901125596800293E-014
           4  9.553023449446951E-014
           5  1.391427478130004E-013
           6  2.076630099346213E-013
           7  3.133083304876209E-013
           8  4.746747082316042E-013
           9  7.210182205615584E-013
          10  1.096848748001658E-012
          11  1.668760468818116E-012
          12  2.538356748339951E-012
          13  3.865172769235704E-012
          14  5.883648602391402E-012
          15  8.956267188087568E-012
          16  1.364218310712348E-011
          17  2.076877283977102E-011
          18  3.164554378681712E-011
          19  4.818645872820234E-011
          20  7.344398196027529E-011
          21  1.118750135932526E-010
          22  1.705214919820518E-010
          23  2.599229045305412E-010
          24  3.961559305050957E-010
          25  6.041896201858524E-010
          26  9.215128933308900E-010
          27  1.405460057151498E-009
          28  2.143888931945869E-009
          29  3.271995954509405E-009
          30  4.994205466416983E-009
          31  7.625357425975376E-009
          32  1.164555673369400E-008
          33  1.778883131012878E-008
          34  2.718227058368081E-008
          35  4.154952318784754E-008
          36  6.353783441854099E-008
          37  9.719865462759036E-008
          38  1.487155325629251E-007
          39  2.276797785583528E-007
          40  3.486918262131903E-007
          41  5.343401619739458E-007
          42  8.191142264539663E-007
          43  1.256196672611671E-006
          44  1.927912793980427E-006
          45  2.959890543169613E-006
          46  4.547777636154342E-006
          47  6.990807566023961E-006
          48  1.075089257177125E-005
          49  1.654283954827596E-005
          50  2.546504636699163E-005
          51  3.921812197229503E-005
          52  6.040933106844672E-005
          53  9.304463534206836E-005
          54  1.432824481896195E-004
          55  2.204791973920487E-004
          56  3.388932444388527E-004
          57  5.197374246704641E-004
          58  7.945658137775952E-004
          59  1.209000241730204E-003
          60  1.826931965344305E-003
          61  2.732920420759077E-003
          62  3.966979136677749E-003
          63  5.467644271754842E-003
          64  7.150620907536969E-003
          65  8.921651082151502E-003
          66  1.068121248434622E-002
          67  1.233061395311559E-002
          68  1.377694688718042E-002
          69  1.493933626021829E-002
          70  1.575300185523263E-002
          71  1.617159792073562E-002
          72  1.617159792073562E-002
          73  1.575300185523263E-002
          74  1.493933626021829E-002
          75  1.377694688718042E-002
          76  1.233061395311559E-002
          77  1.068121248434622E-002
          78  8.921651082151502E-003
          79  7.150620907536969E-003
          80  5.467644271754842E-003
          81  3.966979136677749E-003
          82  2.732920420759087E-003
          83  1.826931965344305E-003
          84  1.209000241730204E-003
          85  7.945658137775932E-004
          86  5.197374246704617E-004
          87  3.388932444388539E-004
          88  2.204791973920487E-004
          89  1.432824481896195E-004
          90  9.304463534206815E-005
          91  6.040933106844692E-005
          92  3.921812197229522E-005
          93  2.546504636699163E-005
          94  1.654283954827596E-005
          95  1.075089257177120E-005
          96  6.990807566023977E-006
          97  4.547777636154356E-006
          98  2.959890543169613E-006
          99  1.927912793980427E-006
         100  1.256196672611668E-006
         101  8.191142264539702E-007
         102  5.343401619739462E-007
         103  3.486918262131903E-007
         104  2.276797785583523E-007
         105  1.487155325629244E-007
         106  9.719865462759068E-008
         107  6.353783441854119E-008
         108  4.154952318784754E-008
         109  2.718227058368071E-008
         110  1.778883131012874E-008
         111  1.164555673369406E-008
         112  7.625357425975376E-009
         113  4.994205466416983E-009
         114  3.271995954509405E-009
         115  2.143888931945861E-009
         116  1.405460057151498E-009
         117  9.215128933308900E-010
         118  6.041896201858524E-010
         119  3.961559305050957E-010
         120  2.599229045305405E-010
         121  1.705214919820518E-010
         122  1.118750135932526E-010
         123  7.344398196027529E-011
         124  4.818645872820234E-011
         125  3.164554378681724E-011
         126  2.076877283977102E-011
         127  1.364218310712348E-011
         128  8.956267188087568E-012
         129  5.883648602391392E-012
         130  3.865172769235712E-012
         131  2.538356748339951E-012
         132  1.668760468818116E-012
         133  1.096848748001658E-012
         134  7.210182205615559E-013
         135  4.746747082316052E-013
         136  3.133083304876209E-013
         137  2.076630099346213E-013
         138  1.391427478130004E-013
         139  9.553023449446913E-014
         140  6.901125596800297E-014
         141  5.477761897959946E-014
  ------------ 
  k    rhog_core(k)
       1   0.16626E-02   0.00000E+00
       2  -0.16114E-02   0.90940E-21
       3  -0.16114E-02  -0.26633E-19
       4  -0.16114E-02  -0.15447E-19
       5  -0.16114E-02  -0.23418E-19
       6  -0.16114E-02  -0.22794E-19
       7  -0.16114E-02  -0.24632E-19
       8   0.15619E-02   0.95911E-20
       9   0.15619E-02   0.17600E-19
      10   0.15619E-02   0.10914E-19
      11   0.15619E-02   0.22161E-19
      12   0.15619E-02   0.26240E-19
      13   0.15619E-02   0.37215E-19
      14   0.15619E-02   0.25973E-19
      15   0.15619E-02   0.38522E-19
      16   0.15619E-02   0.22320E-19
      17   0.15619E-02   0.25868E-19
      18   0.15619E-02   0.39379E-19
      19   0.15619E-02   0.46523E-19
      20  -0.15140E-02   0.26038E-19
      21  -0.15140E-02  -0.31783E-19
      22  -0.15140E-02   0.22739E-19
      23  -0.15140E-02  -0.42675E-19
      24  -0.15140E-02   0.16441E-19
      25  -0.15140E-02  -0.36928E-19
      26  -0.15140E-02   0.92442E-20
      27  -0.15140E-02  -0.61090E-19
      28   0.14675E-02   0.78651E-19
      29   0.14675E-02   0.69666E-19
      30   0.14675E-02   0.67930E-19
      31   0.14675E-02  -0.57955E-19
      32   0.14675E-02  -0.27474E-19
      33   0.14675E-02  -0.32092E-19
      34  -0.14225E-02  -0.88854E-19
      35  -0.14225E-02  -0.79813E-19
      36  -0.14225E-02  -0.92534E-19
      37  -0.14225E-02  -0.93946E-19
      38  -0.14225E-02  -0.84034E-19
      39  -0.14225E-02  -0.32948E-19
      40  -0.14225E-02   0.26788E-19
      41  -0.14225E-02   0.29059E-19
      42  -0.14225E-02  -0.38671E-19
      43  -0.14225E-02  -0.86398E-19
      44  -0.14225E-02  -0.15842E-18
      45  -0.14225E-02   0.12351E-19
      46  -0.14225E-02  -0.81488E-19
      47  -0.14225E-02   0.57801E-20
      48  -0.14225E-02   0.68929E-19
      49  -0.14225E-02   0.67581E-20
      50  -0.14225E-02  -0.10330E-18
      51  -0.14225E-02  -0.80876E-19
      52  -0.14225E-02   0.95789E-20
      53  -0.14225E-02   0.90833E-20
      54  -0.14225E-02   0.20589E-19
      55  -0.14225E-02   0.62179E-19
      56  -0.14225E-02   0.12191E-19
      57  -0.14225E-02   0.12076E-19
      58   0.13789E-02   0.42756E-19
      59   0.13789E-02   0.10691E-18
      60   0.13789E-02   0.83551E-19
      61   0.13789E-02   0.11244E-18
      62   0.13789E-02   0.46089E-19
      63   0.13789E-02   0.10006E-18
      64   0.13789E-02   0.29904E-19
      65   0.13789E-02  -0.13943E-19
      66   0.13789E-02   0.72941E-19
      67   0.13789E-02  -0.64029E-20
      68   0.13789E-02   0.30794E-20
      69   0.13789E-02  -0.62441E-20
      70   0.13789E-02   0.12413E-18
      71   0.13789E-02   0.12264E-18
      72   0.13789E-02   0.40756E-19
      73   0.13789E-02  -0.11211E-20
      74   0.13789E-02   0.10981E-18
      75   0.13789E-02  -0.13979E-19
      76   0.13789E-02   0.13880E-19
      77   0.13789E-02   0.97444E-20
      78   0.13789E-02   0.10258E-19
      79   0.13789E-02   0.30141E-21
      80   0.13789E-02   0.12097E-19
      81   0.13789E-02   0.78378E-20
      82   0.12958E-02   0.14473E-18
      83   0.12958E-02   0.12281E-18
      84   0.12958E-02   0.52613E-19
      85   0.12958E-02   0.39827E-19
      86   0.12958E-02   0.12113E-18
      87   0.12958E-02   0.49278E-19
      88   0.12958E-02   0.15919E-19
      89   0.12958E-02  -0.41757E-19
      90   0.12958E-02   0.50775E-19
      91   0.12958E-02   0.30495E-19
      92   0.12958E-02  -0.59920E-19
      93   0.12958E-02  -0.61838E-19
      94  -0.12561E-02  -0.22394E-20
      95  -0.12561E-02  -0.14374E-18
      96  -0.12561E-02  -0.15923E-18
      97  -0.12561E-02  -0.16506E-18
      98  -0.12561E-02  -0.52432E-19
      99  -0.12561E-02  -0.16528E-18
     100  -0.12561E-02  -0.63589E-19
 1492913   0.24381E-07  -0.10604E-20
 1492914   0.24381E-07   0.22341E-20
 1492915   0.24381E-07  -0.10812E-20
 1492916   0.24381E-07  -0.13505E-20
 1492917   0.24381E-07  -0.18026E-20
 1492918   0.18738E-07   0.31441E-20
 1492919   0.18738E-07   0.36568E-20
 1492920   0.18738E-07   0.60077E-20
 1492921   0.18738E-07   0.27290E-20
 1492922   0.18738E-07   0.63629E-20
 1492923   0.18738E-07   0.30694E-20
 1492924   0.18738E-07   0.61095E-21
 1492925   0.18738E-07   0.11148E-20
 1492926   0.19040E-07   0.63419E-21
 1492927   0.19040E-07   0.13114E-21
 1492928   0.19040E-07   0.72720E-21
 1492929   0.19040E-07  -0.43005E-21
 1492930   0.19040E-07  -0.79035E-21
 1492931   0.19040E-07  -0.19087E-20
 1492932   0.19040E-07  -0.71748E-21
 1492933   0.19040E-07  -0.12050E-20
 1492934   0.25083E-07  -0.53310E-21
 1492935   0.25083E-07   0.72302E-21
 1492936   0.25083E-07  -0.35826E-20
 1492937   0.25083E-07  -0.39009E-20
 1492938   0.25083E-07  -0.31178E-20
 1492939   0.25083E-07  -0.34757E-20
 1492940   0.25083E-07  -0.21377E-20
 1492941   0.25083E-07  -0.92043E-21
 1492942   0.25083E-07   0.26433E-21
 1492943   0.25083E-07   0.27116E-20
 1492944   0.18738E-07  -0.50678E-20
 1492945   0.18738E-07  -0.45107E-20
 1492946   0.24381E-07  -0.38250E-20
 1492947   0.24381E-07  -0.41842E-20
 1492948   0.24381E-07  -0.15794E-20
 1492949   0.24381E-07  -0.88517E-21
 1492950   0.18738E-07  -0.53915E-20
 1492951   0.18738E-07  -0.40627E-20
 1492952   0.25083E-07   0.11093E-20
 1492953   0.25083E-07   0.72080E-21
 1492954   0.25083E-07   0.16500E-20
 1492955   0.25083E-07   0.13096E-20
 1492956   0.18738E-07  -0.48709E-20
 1492957   0.18738E-07  -0.35381E-20
 1492958   0.24381E-07  -0.32335E-20
 1492959   0.24381E-07  -0.26603E-20
 1492960   0.24381E-07  -0.18553E-20
 1492961   0.24381E-07  -0.23372E-20
 1492962   0.18738E-07  -0.30724E-20
 1492963   0.18738E-07  -0.25134E-20
 1492964   0.25083E-07  -0.83843E-21
 1492965   0.25083E-07   0.16681E-20
 1492966   0.24900E-07  -0.45839E-21
 1492967   0.24900E-07  -0.63967E-21
 1492968   0.24900E-07   0.71824E-21
 1492969   0.24900E-07  -0.57506E-21
 1492970   0.24900E-07   0.66014E-22
 1492971   0.24900E-07  -0.11930E-20
 1492972   0.24900E-07  -0.17104E-20
 1492973   0.24900E-07  -0.18482E-20
 1492974   0.17459E-07  -0.87060E-21
 1492975   0.17459E-07  -0.15585E-20
 1492976   0.20506E-07   0.11636E-20
 1492977   0.20506E-07   0.19090E-20
 1492978   0.20506E-07   0.12952E-20
 1492979   0.20506E-07   0.13965E-20
 1492980   0.17459E-07   0.12509E-21
 1492981   0.17459E-07   0.10969E-20
 1492982   0.17459E-07  -0.16370E-20
 1492983   0.17459E-07  -0.65303E-21
 1492984   0.20506E-07   0.18272E-20
 1492985   0.20506E-07   0.19376E-20
 1492986   0.20506E-07   0.10593E-20
 1492987   0.20506E-07   0.18138E-20
 1492988   0.17459E-07   0.11992E-20
 1492989   0.17459E-07   0.51533E-21
 1492990   0.23437E-07   0.55676E-21
 1492991   0.23437E-07   0.14008E-21
 1492992   0.23437E-07   0.88480E-21
 1492993   0.23437E-07   0.19129E-20
 1492994   0.23437E-07   0.84325E-21
 1492995   0.23437E-07   0.18401E-20
 1492996   0.23437E-07   0.16642E-20
 1492997   0.23437E-07   0.12167E-20
 1492998   0.11652E-07   0.13286E-21
 1492999   0.11652E-07   0.14191E-21
 1493000   0.10318E-07   0.25746E-21
 1493001   0.10318E-07   0.31522E-21
 1493002   0.10318E-07   0.44265E-21
 1493003   0.10318E-07   0.59226E-21
 1493004   0.11652E-07   0.89187E-21
 1493005   0.11652E-07   0.11624E-20
 1493006   0.11652E-07   0.88353E-21
 1493007   0.11652E-07   0.11183E-20
 1493008   0.10318E-07   0.48483E-21
 1493009   0.10318E-07   0.61418E-21
 1493010   0.10318E-07   0.34478E-21
 1493011   0.10318E-07   0.38625E-21
 1493012   0.11652E-07  -0.18248E-22
 1493013   0.11652E-07  -0.49355E-22
  ------------ 

     The initial density is read from file :
     ./cr.save/charge-density.dat


     negative rho (up, down):  0.000E+00 4.511E-03
     Starting wfc from file
     Calculation restarted from scf iteration #     4

     total cpu time spent up to now is       67.2 secs

     per-process dynamical memory:   824.8 Mb

     Self-consistent Calculation

     iteration #  4     ecut=   200.00 Ry     beta=0.70
     Calculation restarted from kpoint #     5
     Davidson diagonalization with overlap
     ethr =  5.17E-05,  avg # of iterations =  7.2

     negative rho (up, down):  0.000E+00 2.508E-02

     total cpu time spent up to now is      280.7 secs

     total energy              =     -28.92885179 Ry
     Harris-Foulkes estimate   =     -28.93050432 Ry
     estimated scf accuracy    <       0.00045096 Ry

     total magnetization       =     6.00 Bohr mag/cell
     absolute magnetization    =     6.00 Bohr mag/cell

     iteration #  5     ecut=   200.00 Ry     beta=0.70
     Davidson diagonalization with overlap
     c_bands:  1 eigenvalues not converged
     ethr =  7.52E-06,  avg # of iterations =  7.0

     negative rho (up, down):  0.000E+00 5.348E-03

     total cpu time spent up to now is      634.9 secs

     total energy              =     -28.93020462 Ry
     Harris-Foulkes estimate   =     -28.92886411 Ry
     estimated scf accuracy    <       0.00007058 Ry

     total magnetization       =     6.00 Bohr mag/cell
     absolute magnetization    =     6.00 Bohr mag/cell

     iteration #  6     ecut=   200.00 Ry     beta=0.70
     Davidson diagonalization with overlap
     c_bands:  2 eigenvalues not converged
     ethr =  1.18E-06,  avg # of iterations =  7.9

     negative rho (up, down):  0.000E+00 2.557E-04

     total cpu time spent up to now is     1028.9 secs

     total energy              =     -28.93057304 Ry
     Harris-Foulkes estimate   =     -28.93021579 Ry
     estimated scf accuracy    <       0.00000777 Ry

     total magnetization       =     6.00 Bohr mag/cell
     absolute magnetization    =     6.00 Bohr mag/cell

     iteration #  7     ecut=   200.00 Ry     beta=0.70
     Davidson diagonalization with overlap
     ethr =  1.29E-07,  avg # of iterations =  7.5
 
     Magnetic moment per site:
     atom:    1    charge:    4.1108    magn:    4.1108    constr:    0.0000

     total cpu time spent up to now is     1457.8 secs

     End of self-consistent calculation

 ------ SPIN UP ------------


          k = 0.0000 0.0000 0.0000 (186623 PWs)   bands (ev):

    -4.2403  -3.5113  -3.5113  -3.5074  -3.5074  -3.5074  -0.7396  -0.7396
    -0.7396  -0.0106   1.2761   1.2761   2.4462   2.4462   2.4462   2.7415
     2.9638   2.9638   2.9638   3.4846   3.4846   3.4846   3.5875   3.5875
     5.2663

          k = 0.0000 0.0000-0.1429 (186630 PWs)   bands (ev):

    -4.2192  -3.5111  -3.5084  -3.5084  -3.5076  -3.5073  -1.1444  -0.6952
    -0.6952   0.5597   1.0297   1.5488   1.8995   1.8995   2.2120   2.8980
     3.1006   3.1006   3.1604   3.2640   3.6324   4.1032   4.1599   4.1599
     4.1649

          k = 0.0000-0.1429-0.1429 (186716 PWs)   bands (ev):

    -4.1993  -3.5096  -3.5092  -3.5083  -3.5083  -3.5058  -1.0539  -1.0539
    -0.6560   0.6244   1.1845   1.6487   1.6487   2.1828   2.1828   2.7943
     2.8070   3.0800   3.0800   3.2548   3.6725   4.3887   4.5966   4.5966
     4.8816

          k =-0.1429-0.1429-0.1429 (186352 PWs)   bands (ev):

    -4.1806  -3.5095  -3.5095  -3.5095  -3.5057  -3.5057  -0.9807  -0.9807
    -0.9807   0.9978   0.9978   0.9978   1.3665   2.5312   2.5312   2.5312
     2.9849   3.8306   3.8306   4.5574   4.5574   4.5574   4.8005   4.8005
     4.8005

 ------ SPIN DOWN ----------


          k = 0.0000 0.0000 0.0000 (186623 PWs)   bands (ev):

    -2.1091   0.4347   0.5991   0.5991   0.6744   0.6744   0.6744   0.7355
     0.7355   0.7355   1.8264   1.8264   2.9428   2.9428   2.9428   3.1155
     3.6893   3.6893   3.6893   3.7169   3.7169   3.7169   3.8649   3.8649
     5.6041

          k = 0.0000 0.0000-0.1429 (186630 PWs)   bands (ev):

    -2.0239  -0.2566   0.6280   0.6606   0.6947   0.6947   0.7388   0.8201
     0.8201   1.1482   1.6954   2.2047   2.3311   2.3320   2.3320   3.4988
     3.5737   3.5737   3.8061   4.0526   4.2158   4.3236   4.3634   4.4450
     4.4450

          k = 0.0000-0.1429-0.1429 (186716 PWs)   bands (ev):

    -1.9501   0.0012   0.0012   0.4600   0.6666   0.7049   0.7049   0.7603
     0.9413   1.0876   1.8587   2.2779   2.2779   2.7354   2.7354   2.9146
     2.9739   3.7025   3.7025   4.1679   4.6052   4.8551   4.8551   4.9019
     5.0056

          k =-0.1429-0.1429-0.1429 (186352 PWs)   bands (ev):

    -1.8845   0.2131   0.2131   0.2131   0.5783   0.5783   0.5783   0.7620
     0.7620   1.4172   1.4336   1.4336   1.4336   3.5781   3.5781   3.5781
     3.9342   4.9466   4.9466   5.1669   5.1669   5.1669   5.2628   5.2628
     5.2628

     highest occupied, lowest unoccupied level (ev):    -3.5057   -2.1091

!    total energy              =     -28.93058685 Ry
     Harris-Foulkes estimate   =     -28.93057376 Ry
     estimated scf accuracy    <       0.00000084 Ry

     The total energy is the sum of the following terms:

     one-electron contribution =     -19.84560505 Ry
     hartree contribution      =      13.58894771 Ry
     xc contribution           =     -16.18867813 Ry
     ewald contribution        =      -6.48525138 Ry

     total magnetization       =     6.00 Bohr mag/cell
     absolute magnetization    =     6.00 Bohr mag/cell

     convergence has been achieved in   7 iterations

     Forces acting on atoms (Ry/au):

     atom    1 type  1   force =     0.00000000    0.00000000    0.00000000

     Total force =     0.000000     Total SCF correction =     0.000000


     entering subroutine stress ...

          total   stress  (Ry/bohr**3)                   (kbar)     P=   -0.08
  -0.00000054   0.00000000   0.00000000         -0.08      0.00      0.00
   0.00000000  -0.00000054   0.00000000          0.00     -0.08      0.00
   0.00000000   0.00000000  -0.00000054          0.00      0.00     -0.08


     Writing output data file cr.save
 
     init_run     :     21.60s CPU     65.75s WALL (       1 calls)
     electrons    :   1293.96s CPU   1391.20s WALL (       1 calls)
     forces       :      2.16s CPU      2.46s WALL (       1 calls)
     stress       :     10.78s CPU     13.61s WALL (       1 calls)

     Called by init_run:
     wfcinit      :      0.00s CPU      0.00s WALL (       1 calls)
     potinit      :      1.12s CPU      1.56s WALL (       1 calls)

     Called by electrons:
     c_bands      :   1065.95s CPU   1077.37s WALL (       4 calls)
     sum_band     :    167.19s CPU    249.84s WALL (       4 calls)
     v_of_rho     :      2.72s CPU      2.93s WALL (       5 calls)
     mix_rho      :     58.22s CPU     60.70s WALL (       4 calls)

     Called by c_bands:
     init_us_2    :      1.83s CPU      3.64s WALL (      76 calls)
     cegterg      :   1063.43s CPU   1072.42s WALL (      28 calls)

     Called by sum_band:

     Called by *egterg:
     h_psi        :   1011.20s CPU   1011.29s WALL (     237 calls)
     g_psi        :      2.19s CPU      2.23s WALL (     209 calls)
     cdiaghg      :      0.24s CPU      0.41s WALL (     237 calls)

     Called by h_psi:
     h_psi:pot    :   1008.82s CPU   1008.93s WALL (     237 calls)
     h_psi:calbec :      2.04s CPU      2.06s WALL (     237 calls)
     vloc_psi     :   1003.69s CPU   1003.77s WALL (     237 calls)
     add_vuspsi   :      3.09s CPU      3.10s WALL (     237 calls)

     General routines
     calbec       :      2.73s CPU      2.74s WALL (     277 calls)
     fft          :      7.11s CPU      7.21s WALL (      39 calls)
     ffts         :     39.73s CPU     39.76s WALL (     221 calls)
     fftw         :   1113.36s CPU   1113.39s WALL (    6188 calls)
     davcio       :      0.02s CPU      4.35s WALL (      22 calls)
 
 
     PWSCF        : 22m 8.90s CPU    24m38.55s WALL

 
   This run was terminated on:  16:28:45  15Jul2018            

=------------------------------------------------------------------------------=
   JOB DONE.
=------------------------------------------------------------------------------=
