
     Program PWSCF v.6.0 (svn rev. 13079) starts on 16Jul2018 at 10:51:34 

     This program is part of the open-source Quantum ESPRESSO suite
     for quantum simulation of materials; please cite
         "P. Giannozzi et al., J. Phys.:Condens. Matter 21 395502 (2009);
          URL http://www.quantum-espresso.org", 
     in publications or presentations arising from this work. More details at
     http://www.quantum-espresso.org/quote

     Serial version
     Waiting for input...
     Reading input from standard input
     Message from routine read_cards :
     DEPRECATED: no units specified in CELL_PARAMETERS card

     Current dimensions of program PWSCF are:
     Max number of different atomic species (ntypx) = 10
     Max number of k-points (npk) =  40000
     Max angular momentum in pseudopotentials (lmaxx) =  3
 
     G-vector sticks info
     --------------------
     sticks:   dense  smooth     PW     G-vecs:    dense   smooth      PW
     Sum        7893    7893   2093               527625   527625   72791
 


     bravais-lattice index     =            0
     lattice parameter (alat)  =       4.5000  a.u.
     unit-cell volume          =    3906.9844 (a.u.)^3
     number of atoms/cell      =            1
     number of atomic types    =            1
     number of electrons       =         1.00
     number of Kohn-Sham states=           10
     kinetic-energy cutoff     =     100.0000  Ry
     charge density cutoff     =     400.0000  Ry
     convergence threshold     =      5.0E-06
     mixing beta               =       0.7000
     number of iterations used =            4  local-TF  mixing
     Exchange-correlation      = PZ ( 1  1  0  0 0 0)

     celldm(1)=   4.500000  celldm(2)=   0.000000  celldm(3)=   0.000000
     celldm(4)=   0.000000  celldm(5)=   0.000000  celldm(6)=   0.000000

     crystal axes: (cart. coord. in units of alat)
               a(1) = (   3.500000   0.000000   0.000000 )  
               a(2) = (   0.000000   3.500000   0.000000 )  
               a(3) = (   0.000000   0.000000   3.500000 )  

     reciprocal axes: (cart. coord. in units 2 pi/alat)
               b(1) = (  0.285714  0.000000  0.000000 )  
               b(2) = (  0.000000  0.285714  0.000000 )  
               b(3) = (  0.000000  0.000000  0.285714 )  


     PseudoPot. # 1 for Li read from file:
     ./Li.UPF
     MD5 check sum: 26ac7c562fcb27182e41b8709784d639
     Pseudo is Norm-conserving + core correction, Zval =  1.0
     Generated using "atomic" code by A. Dal Corso  v.6.0 svn rev. 13079
     Using radial grid of 1017 points,  1 beta functions with: 
                l(1) =   1

     atomic species   valence    mass     pseudopotential
        Li             1.00    12.00000     Li( 1.00)

     Starting magnetic structure 
     atomic species   magnetization
        Li           0.010

     48 Sym. Ops., with inversion, found



   Cartesian axes

     site n.     atom                  positions (alat units)
         1           Li  tau(   1) = (   1.7500000   1.7500000   1.7500000  )

     number of k points=     4  gaussian smearing, width (Ry)=  0.0030
                       cart. coord. in units 2pi/alat
        k(    1) = (   0.0000000   0.0000000   0.0000000), wk =   0.1250000
        k(    2) = (   0.0000000   0.0000000  -0.1428571), wk =   0.3750000
        k(    3) = (   0.0000000  -0.1428571  -0.1428571), wk =   0.3750000
        k(    4) = (  -0.1428571  -0.1428571  -0.1428571), wk =   0.1250000

     Dense  grid:   527625 G-vectors     FFT dimensions: ( 101, 101, 101)

     Estimated max dynamical RAM per process >     672.45Mb
     Generating pointlists ...
     new r_m :   0.4125 (alat units)  1.8563 (a.u.) for type    1
dfftp%nnr =1030301
    101    101    101    101    101    101
SIZE(dfftp%isind) =   10201
bg(1:3,1):   0.2857  0.0000  0.0000
bg(1:3,2):   0.0000  0.2857  0.0000
bg(1:3,3):   0.0000  0.0000  0.2857
at(1:3,1):   3.5000  0.0000  0.0000
at(1:3,2):   0.0000  3.5000  0.0000
at(1:3,3):   0.0000  0.0000  3.5000
nt =     1 na =    1
tau(:,na) =    1.75000   1.75000   1.75000
  k    rho_core(k)
       1   0.00000E+00
       2   0.00000E+00
       3   0.00000E+00
       4   0.00000E+00
       5   0.00000E+00
       6   0.00000E+00
       7   0.00000E+00
       8   0.00000E+00
       9   0.00000E+00
      10   0.00000E+00
      11   0.00000E+00
      12   0.00000E+00
      13   0.00000E+00
      14   0.00000E+00
      15   0.00000E+00
      16   0.00000E+00
      17   0.00000E+00
      18   0.00000E+00
      19   0.00000E+00
      20   0.00000E+00
      21   0.00000E+00
      22   0.00000E+00
      23   0.00000E+00
      24   0.00000E+00
      25   0.00000E+00
      26   0.00000E+00
      27   0.00000E+00
      28   0.00000E+00
      29   0.00000E+00
      30   0.00000E+00
      31   0.00000E+00
      32   0.00000E+00
      33   0.00000E+00
      34   0.00000E+00
      35   0.00000E+00
      36   0.00000E+00
      37   0.00000E+00
      38   0.00000E+00
      39   0.00000E+00
      40   0.00000E+00
      41   0.00000E+00
      42   0.00000E+00
      43   0.00000E+00
      44   0.00000E+00
      45   0.00000E+00
      46   0.00000E+00
      47   0.00000E+00
      48   0.00000E+00
      49   0.00000E+00
      50   0.00000E+00
      51   0.00000E+00
      52   0.00000E+00
      53   0.00000E+00
      54   0.00000E+00
      55   0.00000E+00
      56   0.00000E+00
      57   0.00000E+00
      58   0.00000E+00
      59   0.00000E+00
      60   0.00000E+00
      61   0.00000E+00
      62   0.00000E+00
      63   0.00000E+00
      64   0.00000E+00
      65   0.00000E+00
      66   0.00000E+00
      67   0.00000E+00
      68   0.00000E+00
      69   0.00000E+00
      70   0.00000E+00
      71   0.00000E+00
      72   0.00000E+00
      73   0.00000E+00
      74   0.00000E+00
      75   0.00000E+00
      76   0.00000E+00
      77   0.00000E+00
      78   0.00000E+00
      79   0.00000E+00
      80   0.00000E+00
      81   0.00000E+00
      82   0.00000E+00
      83   0.00000E+00
      84   0.00000E+00
      85   0.00000E+00
      86   0.00000E+00
      87   0.00000E+00
      88   0.00000E+00
      89   0.00000E+00
      90   0.00000E+00
      91   0.00000E+00
      92   0.00000E+00
      93   0.00000E+00
      94   0.00000E+00
      95   0.00000E+00
      96   0.00000E+00
      97   0.00000E+00
      98   0.00000E+00
      99   0.00000E+00
     100   0.00000E+00
     101   0.00000E+00
     102   0.00000E+00
     103   0.00000E+00
     104   0.00000E+00
     105   0.00000E+00
     106   0.00000E+00
     107   0.00000E+00
     108   0.00000E+00
     109   0.00000E+00
     110   0.00000E+00
     111   0.00000E+00
     112   0.00000E+00
     113   0.00000E+00
     114   0.00000E+00
     115   0.00000E+00
     116   0.00000E+00
     117   0.00000E+00
     118   0.00000E+00
     119   0.00000E+00
     120   0.00000E+00
     121   0.00000E+00
     122   0.00000E+00
     123   0.00000E+00
     124   0.00000E+00
     125   0.00000E+00
     126   0.00000E+00
     127   0.00000E+00
     128   0.00000E+00
     129   0.00000E+00
     130   0.00000E+00
     131   0.00000E+00
     132   0.00000E+00
     133   0.00000E+00
     134   0.00000E+00
     135   0.00000E+00
     136   0.00000E+00
     137   0.00000E+00
     138   0.00000E+00
     139   0.00000E+00
     140   0.00000E+00
     141   0.00000E+00
     142   0.00000E+00
     143   0.00000E+00
     144   0.00000E+00
     145   0.00000E+00
     146   0.00000E+00
     147   0.00000E+00
     148   0.00000E+00
     149   0.00000E+00
     150   0.00000E+00
     151   0.00000E+00
     152   0.00000E+00
     153   0.00000E+00
     154   0.00000E+00
     155   0.00000E+00
     156   0.00000E+00
     157   0.00000E+00
     158   0.00000E+00
     159   0.00000E+00
     160   0.00000E+00
     161   0.00000E+00
     162   0.00000E+00
     163   0.00000E+00
     164   0.00000E+00
     165   0.00000E+00
     166   0.00000E+00
     167   0.00000E+00
     168   0.00000E+00
     169   0.00000E+00
     170   0.00000E+00
     171   0.00000E+00
     172   0.00000E+00
     173   0.00000E+00
     174   0.00000E+00
     175   0.00000E+00
     176   0.00000E+00
     177   0.00000E+00
     178   0.00000E+00
     179   0.00000E+00
     180   0.00000E+00
     181   0.00000E+00
     182   0.00000E+00
     183   0.00000E+00
     184   0.00000E+00
     185   0.00000E+00
     186   0.00000E+00
     187   0.00000E+00
     188   0.00000E+00
     189   0.00000E+00
     190   0.00000E+00
     191   0.00000E+00
     192   0.00000E+00
     193   0.00000E+00
     194   0.00000E+00
     195   0.00000E+00
     196   0.00000E+00
     197   0.00000E+00
     198   0.00000E+00
     199   0.00000E+00
     200   0.00000E+00
     201   0.00000E+00
     202   0.00000E+00
     203   0.00000E+00
     204   0.00000E+00
     205   0.00000E+00
     206   0.00000E+00
     207   0.00000E+00
     208   0.00000E+00
     209   0.00000E+00
     210   0.00000E+00
     211   0.00000E+00
     212   0.00000E+00
     213   0.00000E+00
     214   0.00000E+00
     215   0.00000E+00
     216   0.00000E+00
     217   0.00000E+00
     218   0.00000E+00
     219   0.00000E+00
     220   0.00000E+00
     221   0.00000E+00
     222   0.00000E+00
     223   0.00000E+00
     224   0.00000E+00
     225   0.00000E+00
     226   0.00000E+00
     227   0.00000E+00
     228   0.00000E+00
     229   0.00000E+00
     230   0.00000E+00
     231   0.00000E+00
     232   0.00000E+00
     233   0.00000E+00
     234   0.00000E+00
     235   0.00000E+00
     236   0.00000E+00
     237   0.00000E+00
     238   0.00000E+00
     239   0.00000E+00
     240   0.00000E+00
     241   0.00000E+00
     242   0.00000E+00
     243   0.00000E+00
     244   0.00000E+00
     245   0.00000E+00
     246   0.00000E+00
     247   0.00000E+00
     248   0.00000E+00
     249   0.00000E+00
     250   0.00000E+00
     251   0.00000E+00
     252   0.00000E+00
     253   0.00000E+00
     254   0.00000E+00
     255   0.00000E+00
     256   0.00000E+00
     257   0.00000E+00
     258   0.00000E+00
     259   0.00000E+00
     260   0.00000E+00
     261   0.00000E+00
     262   0.00000E+00
     263   0.00000E+00
     264   0.00000E+00
     265   0.00000E+00
     266   0.00000E+00
     267   0.00000E+00
     268   0.00000E+00
     269   0.00000E+00
     270   0.00000E+00
     271   0.00000E+00
     272   0.00000E+00
     273   0.00000E+00
     274   0.00000E+00
     275   0.00000E+00
     276   0.00000E+00
     277   0.00000E+00
     278   0.00000E+00
     279   0.00000E+00
     280   0.00000E+00
     281   0.00000E+00
     282   0.00000E+00
     283   0.00000E+00
     284   0.00000E+00
     285   0.00000E+00
     286   0.00000E+00
     287   0.00000E+00
     288   0.00000E+00
     289   0.00000E+00
     290   0.00000E+00
     291   0.00000E+00
     292   0.00000E+00
     293   0.00000E+00
     294   0.00000E+00
     295   0.00000E+00
     296   0.00000E+00
     297   0.00000E+00
     298   0.00000E+00
     299   0.00000E+00
     300   0.00000E+00
  ------------ 
  k    averhoc
           1  1.106904778362852E-015
           2  1.325042549550529E-015
           3  2.061922392576611E-015
           4  3.612645055878656E-015
           5  6.582454237733732E-015
           6  1.213458480804788E-014
           7  2.245818368507318E-014
           8  4.164246653713472E-014
           9  7.721585865959370E-014
          10  1.431601661427511E-013
          11  2.654689214015038E-013
          12  4.924028266336060E-013
          13  9.131682204932957E-013
          14  1.693800736285411E-012
          15  3.141144314203582E-012
          16  5.826490805487035E-012
          17  1.081068503387038E-011
          18  2.006068919462281E-011
          19  3.721438092363355E-011
          20  6.907924144514328E-011
          21  1.281829017943464E-010
          22  2.379630732247783E-010
          23  4.419277346572729E-010
          24  8.201781331825294E-010
          25  1.523703794299610E-009
          26  2.829277747870931E-009
          27  5.254382646621188E-009
          28  9.761838579797473E-009
          29  1.814238431932065E-008
          30  3.372306883958562E-008
          31  6.267973237967731E-008
          32  1.165311468090781E-007
          33  2.167659443033158E-007
          34  4.033279297760828E-007
          35  7.506579115307423E-007
          36  1.397604050712739E-006
          37  2.603442137259188E-006
          38  4.850621250956752E-006
          39  9.045783135764376E-006
          40  1.687445108001362E-005
          41  3.149663843804393E-005
          42  5.875192635884427E-005
          43  1.037967336985343E-004
          44  1.640031264809029E-004
          45  2.347461468459426E-004
          46  3.105719298680037E-004
          47  3.855805854852491E-004
          48  4.539975424175781E-004
          49  5.105427817204932E-004
          50  5.508874794991274E-004
          51  5.718674385848469E-004
          52  5.718674385848469E-004
          53  5.508874794991274E-004
          54  5.105427817204932E-004
          55  4.539975424175781E-004
          56  3.855805854852491E-004
          57  3.105719298680037E-004
          58  2.347461468459426E-004
          59  1.640031264809029E-004
          60  1.037967336985343E-004
          61  5.875192635884427E-005
          62  3.149663843804393E-005
          63  1.687445108001355E-005
          64  9.045783135764309E-006
          65  4.850621250956733E-006
          66  2.603442137259197E-006
          67  1.397604050712745E-006
          68  7.506579115307442E-007
          69  4.033279297760845E-007
          70  2.167659443033158E-007
          71  1.165311468090781E-007
          72  6.267973237967731E-008
          73  3.372306883958562E-008
          74  1.814238431932065E-008
          75  9.761838579797460E-009
          76  5.254382646621177E-009
          77  2.829277747870924E-009
          78  1.523703794299607E-009
          79  8.201781331825258E-010
          80  4.419277346572717E-010
          81  2.379630732247796E-010
          82  1.281829017943472E-010
          83  6.907924144514328E-011
          84  3.721438092363355E-011
          85  2.006068919462281E-011
          86  1.081068503387038E-011
          87  5.826490805487035E-012
          88  3.141144314203582E-012
          89  1.693800736285411E-012
          90  9.131682204932957E-013
          91  4.924028266336060E-013
          92  2.654689214015038E-013
          93  1.431601661427507E-013
          94  7.721585865959351E-014
          95  4.164246653713498E-014
          96  2.245818368507329E-014
          97  1.213458480804793E-014
          98  6.582454237733732E-015
          99  3.612645055878656E-015
         100  2.061922392576611E-015
         101  1.325042549550529E-015
  ------------ 
  k    rhog_core(k)
       1   0.67577E-04   0.20474E-20
       2  -0.64993E-04   0.22629E-20
       3  -0.64993E-04   0.24784E-20
       4  -0.64993E-04   0.75711E-20
       5  -0.64993E-04  -0.44956E-20
       6  -0.64993E-04   0.30172E-20
       7  -0.64993E-04   0.86206E-21
       8   0.62502E-04  -0.31250E-20
       9   0.62502E-04  -0.85040E-21
      10   0.62502E-04  -0.38676E-20
      11   0.62502E-04  -0.14008E-20
      12   0.62502E-04  -0.34366E-20
      13   0.62502E-04  -0.42986E-20
      14   0.62502E-04  -0.38676E-20
      15   0.62502E-04  -0.25745E-20
      16   0.62502E-04  -0.34482E-20
      17   0.62502E-04  -0.21435E-20
      18   0.62502E-04  -0.34366E-20
      19   0.62502E-04  -0.10776E-21
      20  -0.60101E-04   0.44167E-20
      21  -0.60101E-04   0.42022E-20
      22  -0.60101E-04   0.31236E-20
      23  -0.60101E-04   0.35556E-20
      24  -0.60101E-04   0.53845E-21
      25  -0.60101E-04   0.96947E-21
      26  -0.60101E-04   0.52798E-20
      27  -0.60101E-04   0.29091E-20
      28   0.57787E-04   0.43103E-21
      29   0.57787E-04  -0.23707E-20
      30   0.57787E-04  -0.26719E-20
      31   0.57787E-04   0.16508E-20
      32   0.57787E-04  -0.32327E-21
      33   0.57787E-04  -0.19396E-20
      34  -0.55555E-04   0.20474E-20
      35  -0.55555E-04   0.47345E-20
      36  -0.55555E-04   0.12863E-20
      37  -0.55555E-04   0.32327E-21
      38  -0.55555E-04   0.25862E-20
      39  -0.55555E-04   0.24838E-20
      40  -0.55555E-04   0.33396E-20
      41  -0.55555E-04  -0.14008E-20
      42  -0.55555E-04   0.40869E-20
      43  -0.55555E-04   0.38725E-20
      44  -0.55555E-04   0.50637E-20
      45  -0.55555E-04   0.24775E-20
      46  -0.55555E-04   0.33396E-20
      47  -0.55555E-04  -0.97068E-21
      48  -0.55555E-04   0.19318E-20
      49  -0.55555E-04  -0.10854E-20
      50  -0.55555E-04   0.18319E-20
      51  -0.55555E-04   0.33458E-20
      52  -0.55555E-04   0.33396E-20
      53  -0.55555E-04  -0.10776E-21
      54  -0.55555E-04   0.19396E-20
      55  -0.55555E-04   0.47335E-20
      56  -0.55555E-04  -0.23774E-20
      57  -0.55555E-04   0.14008E-20
      58   0.53403E-04  -0.43683E-21
      59   0.53403E-04  -0.43151E-20
      60   0.53403E-04   0.36579E-20
      61   0.53403E-04  -0.25930E-20
      62   0.53403E-04   0.34414E-20
      63   0.53403E-04  -0.12999E-20
      64   0.53403E-04  -0.57050E-20
      65   0.53403E-04  -0.52649E-21
      66   0.53403E-04   0.11914E-20
      67   0.53403E-04   0.32935E-21
      68   0.53403E-04  -0.15134E-20
      69   0.53403E-04  -0.19454E-20
      70   0.53403E-04  -0.19454E-20
      71   0.53403E-04  -0.49637E-20
      72   0.53403E-04  -0.22568E-20
      73   0.53403E-04   0.11914E-20
      74   0.53403E-04  -0.22506E-20
      75   0.53403E-04  -0.22506E-20
      76   0.53403E-04   0.10718E-20
      77   0.53403E-04  -0.19454E-20
      78   0.53403E-04  -0.43580E-21
      79   0.53403E-04  -0.32375E-20
      80   0.53403E-04  -0.19444E-20
      81   0.53403E-04  -0.25909E-20
      82   0.49329E-04  -0.59266E-21
      83   0.49329E-04   0.19141E-20
      84   0.49329E-04   0.19141E-20
      85   0.49329E-04   0.16164E-21
      86   0.49329E-04  -0.49823E-20
      87   0.49329E-04  -0.15341E-20
      88   0.49329E-04   0.19265E-20
      89   0.49329E-04  -0.66585E-21
      90   0.49329E-04  -0.15086E-20
      91   0.49329E-04  -0.15341E-20
      92   0.49329E-04   0.10583E-20
      93   0.49329E-04   0.57650E-20
      94  -0.47400E-04  -0.48491E-20
      95  -0.47400E-04  -0.11378E-20
      96  -0.47400E-04   0.16628E-20
      97  -0.47400E-04  -0.74226E-21
      98  -0.47400E-04   0.98186E-21
      99  -0.47400E-04   0.12602E-21
     100  -0.47400E-04  -0.24788E-20
  527525   0.22962E-08   0.22435E-21
  527526   0.22962E-08   0.92459E-22
  527527   0.22962E-08   0.87618E-22
  527528   0.70096E-10  -0.65254E-22
  527529   0.70096E-10  -0.60588E-22
  527530   0.70096E-10  -0.69190E-22
  527531   0.70096E-10  -0.70530E-22
  527532   0.22962E-08   0.98752E-22
  527533   0.22962E-08   0.95869E-22
  527534   0.22962E-08   0.22100E-21
  527535   0.22962E-08   0.22189E-21
  527536   0.70096E-10  -0.56644E-22
  527537   0.70096E-10  -0.56327E-22
  527538   0.70152E-09  -0.22090E-21
  527539   0.70152E-09  -0.21892E-21
  527540   0.70152E-09  -0.24032E-21
  527541   0.70152E-09  -0.22652E-21
  527542   0.70152E-09  -0.24145E-21
  527543   0.70152E-09  -0.23023E-21
  527544   0.70152E-09  -0.22442E-21
  527545   0.70152E-09  -0.22156E-21
  527546   0.87687E-09   0.95712E-22
  527547   0.87687E-09   0.77890E-22
  527548   0.87687E-09   0.38666E-22
  527549   0.87687E-09   0.53111E-22
  527550   0.87687E-09   0.36303E-22
  527551   0.87687E-09   0.50906E-22
  527552   0.87687E-09   0.11424E-21
  527553   0.87687E-09   0.96538E-22
  527554   0.15681E-08   0.13264E-21
  527555   0.15681E-08   0.15410E-21
  527556   0.15681E-08   0.15815E-21
  527557   0.15681E-08   0.14318E-21
  527558   0.15681E-08   0.16546E-21
  527559   0.15681E-08   0.15027E-21
  527560   0.15681E-08   0.10242E-21
  527561   0.15681E-08   0.12409E-21
  527562   0.15681E-08  -0.14789E-22
  527563   0.15681E-08  -0.49838E-23
  527564   0.15681E-08   0.80184E-22
  527565   0.15681E-08   0.58894E-22
  527566   0.15681E-08   0.85281E-22
  527567   0.15681E-08   0.64452E-22
  527568   0.15681E-08  -0.50712E-22
  527569   0.15681E-08  -0.41695E-22
  527570   0.87687E-09   0.40970E-22
  527571   0.87687E-09   0.25362E-22
  527572   0.87687E-09  -0.92715E-22
  527573   0.87687E-09  -0.10309E-21
  527574   0.87687E-09  -0.82788E-22
  527575   0.87687E-09  -0.93805E-22
  527576   0.87687E-09   0.45460E-22
  527577   0.87687E-09   0.29303E-22
  527578   0.70152E-09  -0.41990E-23
  527579   0.70152E-09  -0.17310E-23
  527580   0.70152E-09   0.67559E-22
  527581   0.70152E-09   0.77312E-22
  527582   0.70152E-09   0.59083E-22
  527583   0.70152E-09   0.69953E-22
  527584   0.70152E-09   0.14828E-22
  527585   0.70152E-09   0.17327E-22
  527586   0.22962E-08  -0.50300E-22
  527587   0.22962E-08  -0.57781E-22
  527588   0.22962E-08   0.22850E-22
  527589   0.22962E-08   0.39660E-22
  527590   0.22962E-08   0.17281E-22
  527591   0.22962E-08   0.33335E-22
  527592   0.22962E-08  -0.67046E-22
  527593   0.22962E-08  -0.73532E-22
  527594   0.70096E-10  -0.50835E-22
  527595   0.70096E-10  -0.45661E-22
  527596   0.70096E-10   0.21313E-22
  527597   0.70096E-10   0.34131E-22
  527598   0.70096E-10   0.29113E-22
  527599   0.70096E-10   0.42234E-22
  527600   0.70096E-10  -0.38330E-22
  527601   0.70096E-10  -0.32875E-22
  527602   0.65381E-09   0.36387E-21
  527603   0.65381E-09   0.36441E-21
  527604   0.65381E-09   0.12946E-21
  527605   0.65381E-09   0.13950E-21
  527606   0.65381E-09   0.13285E-21
  527607   0.65381E-09   0.14197E-21
  527608   0.65381E-09   0.36448E-21
  527609   0.65381E-09   0.36464E-21
  527610   0.21497E-08   0.73816E-22
  527611   0.21497E-08   0.86465E-22
  527612   0.21497E-08   0.13605E-21
  527613   0.21497E-08   0.15357E-21
  527614   0.21497E-08   0.12068E-21
  527615   0.21497E-08   0.13952E-21
  527616   0.21497E-08   0.10179E-21
  527617   0.21497E-08   0.11447E-21
  527618  -0.11912E-08  -0.46595E-21
  527619  -0.11912E-08  -0.47654E-21
  527620  -0.11912E-08  -0.46969E-21
  527621  -0.11912E-08  -0.48025E-21
  527622  -0.11912E-08  -0.47167E-21
  527623  -0.11912E-08  -0.48232E-21
  527624  -0.11912E-08  -0.46861E-21
  527625  -0.11912E-08  -0.47935E-21
  ------------ 

     Initial potential from superposition of free atoms

     starting charge    0.99533, renormalised to    1.00000

     negative rho (up, down):  1.385E-05 1.358E-05
     Starting wfc are    4 randomized atomic wfcs +    6 random wfc

     total cpu time spent up to now is       29.3 secs

     per-process dynamical memory:   376.9 Mb

     Self-consistent Calculation

     iteration #  1     ecut=   100.00 Ry     beta=0.70
     Davidson diagonalization with overlap
     ethr =  1.00E-02,  avg # of iterations = 10.9

     Threshold (ethr) on eigenvalues was too large:
     Diagonalizing with lowered threshold

     Davidson diagonalization with overlap
     ethr =  1.82E-05,  avg # of iterations = 10.9

     total cpu time spent up to now is      155.0 secs

     total energy              =      -0.50230586 Ry
     Harris-Foulkes estimate   =      -0.50222441 Ry
     estimated scf accuracy    <       0.00018318 Ry

     total magnetization       =     0.03 Bohr mag/cell
     absolute magnetization    =     0.03 Bohr mag/cell

     iteration #  2     ecut=   100.00 Ry     beta=0.70
     Davidson diagonalization with overlap
     ethr =  1.83E-05,  avg # of iterations =  3.1

     total cpu time spent up to now is      190.8 secs

     total energy              =      -0.50229339 Ry
     Harris-Foulkes estimate   =      -0.50232254 Ry
     estimated scf accuracy    <       0.00009802 Ry

     total magnetization       =     0.09 Bohr mag/cell
     absolute magnetization    =     0.09 Bohr mag/cell

     iteration #  3     ecut=   100.00 Ry     beta=0.70
     Davidson diagonalization with overlap
     ethr =  9.80E-06,  avg # of iterations =  2.8

     total cpu time spent up to now is      228.6 secs

     total energy              =      -0.50139582 Ry
     Harris-Foulkes estimate   =      -0.50357239 Ry
     estimated scf accuracy    <       0.00015197 Ry

     total magnetization       =     0.65 Bohr mag/cell
     absolute magnetization    =     0.65 Bohr mag/cell

     iteration #  4     ecut=   100.00 Ry     beta=0.70
     Davidson diagonalization with overlap
     ethr =  9.80E-06,  avg # of iterations =  1.4

     total cpu time spent up to now is      258.6 secs

     total energy              =      -0.50222238 Ry
     Harris-Foulkes estimate   =      -0.50237468 Ry
     estimated scf accuracy    <       0.00002526 Ry

     total magnetization       =     0.14 Bohr mag/cell
     absolute magnetization    =     0.14 Bohr mag/cell

     iteration #  5     ecut=   100.00 Ry     beta=0.70
     Davidson diagonalization with overlap
     ethr =  2.53E-06,  avg # of iterations =  3.2
 
     Magnetic moment per site:
     atom:    1    charge:    0.0989    magn:   -0.0012    constr:    0.0000

     total cpu time spent up to now is      294.3 secs

     End of self-consistent calculation

 ------ SPIN UP ------------


          k = 0.0000 0.0000 0.0000 ( 65867 PWs)   bands (ev):

    -2.7926  -0.7186  -0.7186  -0.7186  -0.0876   0.7371   0.7371   1.9830
     1.9830   1.9830

          k = 0.0000 0.0000-0.1429 ( 65954 PWs)   bands (ev):

    -2.7029  -1.2568  -0.6578  -0.6578   0.4085   0.7144   0.9973   1.4086
     1.4086   1.7396

          k = 0.0000-0.1429-0.1429 ( 65936 PWs)   bands (ev):

    -2.6227  -1.1264  -1.1264  -0.6056   0.1688   0.9200   1.2338   1.2339
     1.6753   1.6753

          k =-0.1429-0.1429-0.1429 ( 66088 PWs)   bands (ev):

    -2.5498  -1.0211  -1.0211  -1.0211   0.5025   0.5025   0.5025   0.9983
     2.0001   2.0001

 ------ SPIN DOWN ----------


          k = 0.0000 0.0000 0.0000 ( 65867 PWs)   bands (ev):

    -2.7955  -0.7214  -0.7214  -0.7214  -0.0886   0.7356   0.7356   1.9818
     1.9819   1.9819

          k = 0.0000 0.0000-0.1429 ( 65954 PWs)   bands (ev):

    -2.7059  -1.2590  -0.6607  -0.6607   0.4071   0.7132   0.9955   1.4073
     1.4073   1.7389

          k = 0.0000-0.1429-0.1429 ( 65936 PWs)   bands (ev):

    -2.6258  -1.1288  -1.1288  -0.6086   0.1681   0.9183   1.2325   1.2325
     1.6737   1.6737

          k =-0.1429-0.1429-0.1429 ( 66088 PWs)   bands (ev):

    -2.5530  -1.0237  -1.0237  -1.0237   0.5015   0.5015   0.5015   0.9981
     1.9982   1.9982

     the Fermi energy is    -2.6643 ev

!    total energy              =      -0.50233141 Ry
     Harris-Foulkes estimate   =      -0.50232811 Ry
     estimated scf accuracy    <       0.00000280 Ry

     The total energy is the sum of the following terms:

     one-electron contribution =      -0.05386840 Ry
     hartree contribution      =       0.06389020 Ry
     xc contribution           =      -0.33172260 Ry
     ewald contribution        =      -0.18014587 Ry
     smearing contrib. (-TS)   =      -0.00048475 Ry

     total magnetization       =    -0.01 Bohr mag/cell
     absolute magnetization    =     0.01 Bohr mag/cell

     convergence has been achieved in   5 iterations

     Forces acting on atoms (Ry/au):

     atom    1 type  1   force =     0.00000000    0.00000000    0.00000000

     Total force =     0.000000     Total SCF correction =     0.000000


     entering subroutine stress ...

          total   stress  (Ry/bohr**3)                   (kbar)     P=   -0.39
  -0.00000262   0.00000000   0.00000000         -0.39      0.00      0.00
   0.00000000  -0.00000262   0.00000000          0.00     -0.39      0.00
   0.00000000   0.00000000  -0.00000262          0.00      0.00     -0.39


     Writing output data file Li.save
 
     init_run     :     13.03s CPU     27.95s WALL (       1 calls)
     electrons    :    219.72s CPU    272.47s WALL (       1 calls)
     forces       :      0.48s CPU      0.51s WALL (       1 calls)
     stress       :      1.64s CPU      1.93s WALL (       1 calls)

     Called by init_run:
     wfcinit      :      7.23s CPU      7.44s WALL (       1 calls)
     potinit      :      0.40s CPU      0.50s WALL (       1 calls)

     Called by electrons:
     c_bands      :    169.56s CPU    170.93s WALL (       6 calls)
     sum_band     :     28.63s CPU     72.15s WALL (       6 calls)
     v_of_rho     :      1.07s CPU      1.12s WALL (       6 calls)
     mix_rho      :     20.42s CPU     20.81s WALL (       6 calls)

     Called by c_bands:
     init_us_2    :      0.54s CPU      0.58s WALL (     120 calls)
     cegterg      :    169.09s CPU    169.81s WALL (      48 calls)

     Called by sum_band:

     Called by *egterg:
     h_psi        :    169.32s CPU    169.36s WALL (     314 calls)
     g_psi        :      0.60s CPU      0.56s WALL (     258 calls)
     cdiaghg      :      0.05s CPU      0.20s WALL (     298 calls)

     Called by h_psi:
     h_psi:pot    :    168.83s CPU    168.90s WALL (     314 calls)
     h_psi:calbec :      0.42s CPU      0.49s WALL (     314 calls)
     vloc_psi     :    168.05s CPU    168.09s WALL (     314 calls)
     add_vuspsi   :      0.36s CPU      0.32s WALL (     314 calls)

     General routines
     calbec       :      0.50s CPU      0.57s WALL (     354 calls)
     fft          :      2.15s CPU      2.30s WALL (      52 calls)
     ffts         :     13.00s CPU     13.10s WALL (     314 calls)
     fftw         :    182.79s CPU    182.93s WALL (    4386 calls)
     davcio       :      0.00s CPU      0.13s WALL (       8 calls)
 
 
     PWSCF        :  3m55.01s CPU     5m 4.72s WALL

 
   This run was terminated on:  10:56:39  16Jul2018            

=------------------------------------------------------------------------------=
   JOB DONE.
=------------------------------------------------------------------------------=
