
     Program PWSCF v.6.0 (svn rev. 13079) starts on 27Jul2018 at 11:24:13 

     This program is part of the open-source Quantum ESPRESSO suite
     for quantum simulation of materials; please cite
         "P. Giannozzi et al., J. Phys.:Condens. Matter 21 395502 (2009);
          URL http://www.quantum-espresso.org", 
     in publications or presentations arising from this work. More details at
     http://www.quantum-espresso.org/quote

     Serial version
     Waiting for input...
     Reading input from standard input
     Message from routine read_cards :
     DEPRECATED: no units specified in CELL_PARAMETERS card

     Current dimensions of program PWSCF are:
     Max number of different atomic species (ntypx) = 10
     Max number of k-points (npk) =  40000
     Max angular momentum in pseudopotentials (lmaxx) =  3
 
     G-vector sticks info
     --------------------
     sticks:   dense  smooth     PW     G-vecs:    dense   smooth      PW
     Sum       15793   15793   4149              1493013  1493013  200597
 


     bravais-lattice index     =            0
     lattice parameter (alat)  =       4.5000  a.u.
     unit-cell volume          =    3906.9844 (a.u.)^3
     number of atoms/cell      =            1
     number of atomic types    =            1
     number of electrons       =        10.00 (up:   9.00, down:   1.00)
     number of Kohn-Sham states=           25
     kinetic-energy cutoff     =     200.0000  Ry
     charge density cutoff     =     800.0000  Ry
     convergence threshold     =      5.0E-06
     mixing beta               =       0.7000
     number of iterations used =            4  local-TF  mixing
     Exchange-correlation      = PZ ( 1  1  0  0 0 0)

     celldm(1)=   4.500000  celldm(2)=   0.000000  celldm(3)=   0.000000
     celldm(4)=   0.000000  celldm(5)=   0.000000  celldm(6)=   0.000000

     crystal axes: (cart. coord. in units of alat)
               a(1) = (   3.500000   0.000000   0.000000 )  
               a(2) = (   0.000000   3.500000   0.000000 )  
               a(3) = (   0.000000   0.000000   3.500000 )  

     reciprocal axes: (cart. coord. in units 2 pi/alat)
               b(1) = (  0.285714  0.000000  0.000000 )  
               b(2) = (  0.000000  0.285714  0.000000 )  
               b(3) = (  0.000000  0.000000  0.285714 )  


     PseudoPot. # 1 for Gd read from file:
     ./Gd.UPF
     MD5 check sum: 448dfcaf1b17c4e67b5bdfcf6901a7cd
     Pseudo is Norm-conserving + core correction, Zval = 10.0
     Generated using "atomic" code by A. Dal Corso  v.6.0 svn rev. 13079
     Using radial grid of 1263 points,  3 beta functions with: 
                l(1) =   1
                l(2) =   2
                l(3) =   3

     atomic species   valence    mass     pseudopotential
        Gd            10.00    12.00000     Gd( 1.00)

     Starting magnetic structure 
     atomic species   magnetization
        Gd           0.000

     48 Sym. Ops., with inversion, found



   Cartesian axes

     site n.     atom                  positions (alat units)
         1           Gd  tau(   1) = (   1.7500000   1.7500000   1.7500000  )

     number of k points=     4
                       cart. coord. in units 2pi/alat
        k(    1) = (   0.0000000   0.0000000   0.0000000), wk =   0.1250000
        k(    2) = (   0.0000000   0.0000000  -0.1428571), wk =   0.3750000
        k(    3) = (   0.0000000  -0.1428571  -0.1428571), wk =   0.3750000
        k(    4) = (  -0.1428571  -0.1428571  -0.1428571), wk =   0.1250000

     Dense  grid:  1493013 G-vectors     FFT dimensions: ( 141, 141, 141)

     Estimated max dynamical RAM per process >    2308.43Mb
     Generating pointlists ...
     new r_m :   0.4125 (alat units)  1.8563 (a.u.) for type    1
dfftp%nnr =2803221
    141    141    141    141    141    141
SIZE(dfftp%isind) =   19881
bg(1:3,1):   0.2857  0.0000  0.0000
bg(1:3,2):   0.0000  0.2857  0.0000
bg(1:3,3):   0.0000  0.0000  0.2857
at(1:3,1):   3.5000  0.0000  0.0000
at(1:3,2):   0.0000  3.5000  0.0000
at(1:3,3):   0.0000  0.0000  3.5000
nt =     1 na =    1
tau(:,na) =    1.75000   1.75000   1.75000
  k    rho_core(k)
       1   0.00000E+00
       2   0.00000E+00
       3   0.00000E+00
       4   0.00000E+00
       5   0.00000E+00
       6   0.00000E+00
       7   0.00000E+00
       8   0.00000E+00
       9   0.00000E+00
      10   0.00000E+00
      11   0.00000E+00
      12   0.00000E+00
      13   0.00000E+00
      14   0.00000E+00
      15   0.00000E+00
      16   0.00000E+00
      17   0.00000E+00
      18   0.00000E+00
      19   0.00000E+00
      20   0.00000E+00
      21   0.00000E+00
      22   0.00000E+00
      23   0.00000E+00
      24   0.00000E+00
      25   0.00000E+00
      26   0.00000E+00
      27   0.00000E+00
      28   0.00000E+00
      29   0.00000E+00
      30   0.00000E+00
      31   0.00000E+00
      32   0.00000E+00
      33   0.00000E+00
      34   0.00000E+00
      35   0.00000E+00
      36   0.00000E+00
      37   0.00000E+00
      38   0.00000E+00
      39   0.00000E+00
      40   0.00000E+00
      41   0.00000E+00
      42   0.00000E+00
      43   0.00000E+00
      44   0.00000E+00
      45   0.00000E+00
      46   0.00000E+00
      47   0.00000E+00
      48   0.00000E+00
      49   0.00000E+00
      50   0.00000E+00
      51   0.00000E+00
      52   0.00000E+00
      53   0.00000E+00
      54   0.00000E+00
      55   0.00000E+00
      56   0.00000E+00
      57   0.00000E+00
      58   0.00000E+00
      59   0.00000E+00
      60   0.00000E+00
      61   0.00000E+00
      62   0.00000E+00
      63   0.00000E+00
      64   0.00000E+00
      65   0.00000E+00
      66   0.00000E+00
      67   0.00000E+00
      68   0.00000E+00
      69   0.00000E+00
      70   0.00000E+00
      71   0.00000E+00
      72   0.00000E+00
      73   0.00000E+00
      74   0.00000E+00
      75   0.00000E+00
      76   0.00000E+00
      77   0.00000E+00
      78   0.00000E+00
      79   0.00000E+00
      80   0.00000E+00
      81   0.00000E+00
      82   0.00000E+00
      83   0.00000E+00
      84   0.00000E+00
      85   0.00000E+00
      86   0.00000E+00
      87   0.00000E+00
      88   0.00000E+00
      89   0.00000E+00
      90   0.00000E+00
      91   0.00000E+00
      92   0.00000E+00
      93   0.00000E+00
      94   0.00000E+00
      95   0.00000E+00
      96   0.00000E+00
      97   0.00000E+00
      98   0.00000E+00
      99   0.00000E+00
     100   0.00000E+00
     101   0.00000E+00
     102   0.00000E+00
     103   0.00000E+00
     104   0.00000E+00
     105   0.00000E+00
     106   0.00000E+00
     107   0.00000E+00
     108   0.00000E+00
     109   0.00000E+00
     110   0.00000E+00
     111   0.00000E+00
     112   0.00000E+00
     113   0.00000E+00
     114   0.00000E+00
     115   0.00000E+00
     116   0.00000E+00
     117   0.00000E+00
     118   0.00000E+00
     119   0.00000E+00
     120   0.00000E+00
     121   0.00000E+00
     122   0.00000E+00
     123   0.00000E+00
     124   0.00000E+00
     125   0.00000E+00
     126   0.00000E+00
     127   0.00000E+00
     128   0.00000E+00
     129   0.00000E+00
     130   0.00000E+00
     131   0.00000E+00
     132   0.00000E+00
     133   0.00000E+00
     134   0.00000E+00
     135   0.00000E+00
     136   0.00000E+00
     137   0.00000E+00
     138   0.00000E+00
     139   0.00000E+00
     140   0.00000E+00
     141   0.00000E+00
     142   0.00000E+00
     143   0.00000E+00
     144   0.00000E+00
     145   0.00000E+00
     146   0.00000E+00
     147   0.00000E+00
     148   0.00000E+00
     149   0.00000E+00
     150   0.00000E+00
     151   0.00000E+00
     152   0.00000E+00
     153   0.00000E+00
     154   0.00000E+00
     155   0.00000E+00
     156   0.00000E+00
     157   0.00000E+00
     158   0.00000E+00
     159   0.00000E+00
     160   0.00000E+00
     161   0.00000E+00
     162   0.00000E+00
     163   0.00000E+00
     164   0.00000E+00
     165   0.00000E+00
     166   0.00000E+00
     167   0.00000E+00
     168   0.00000E+00
     169   0.00000E+00
     170   0.00000E+00
     171   0.00000E+00
     172   0.00000E+00
     173   0.00000E+00
     174   0.00000E+00
     175   0.00000E+00
     176   0.00000E+00
     177   0.00000E+00
     178   0.00000E+00
     179   0.00000E+00
     180   0.00000E+00
     181   0.00000E+00
     182   0.00000E+00
     183   0.00000E+00
     184   0.00000E+00
     185   0.00000E+00
     186   0.00000E+00
     187   0.00000E+00
     188   0.00000E+00
     189   0.00000E+00
     190   0.00000E+00
     191   0.00000E+00
     192   0.00000E+00
     193   0.00000E+00
     194   0.00000E+00
     195   0.00000E+00
     196   0.00000E+00
     197   0.00000E+00
     198   0.00000E+00
     199   0.00000E+00
     200   0.00000E+00
     201   0.00000E+00
     202   0.00000E+00
     203   0.00000E+00
     204   0.00000E+00
     205   0.00000E+00
     206   0.00000E+00
     207   0.00000E+00
     208   0.00000E+00
     209   0.00000E+00
     210   0.00000E+00
     211   0.00000E+00
     212   0.00000E+00
     213   0.00000E+00
     214   0.00000E+00
     215   0.00000E+00
     216   0.00000E+00
     217   0.00000E+00
     218   0.00000E+00
     219   0.00000E+00
     220   0.00000E+00
     221   0.00000E+00
     222   0.00000E+00
     223   0.00000E+00
     224   0.00000E+00
     225   0.00000E+00
     226   0.00000E+00
     227   0.00000E+00
     228   0.00000E+00
     229   0.00000E+00
     230   0.00000E+00
     231   0.00000E+00
     232   0.00000E+00
     233   0.00000E+00
     234   0.00000E+00
     235   0.00000E+00
     236   0.00000E+00
     237   0.00000E+00
     238   0.00000E+00
     239   0.00000E+00
     240   0.00000E+00
     241   0.00000E+00
     242   0.00000E+00
     243   0.00000E+00
     244   0.00000E+00
     245   0.00000E+00
     246   0.00000E+00
     247   0.00000E+00
     248   0.00000E+00
     249   0.00000E+00
     250   0.00000E+00
     251   0.00000E+00
     252   0.00000E+00
     253   0.00000E+00
     254   0.00000E+00
     255   0.00000E+00
     256   0.00000E+00
     257   0.00000E+00
     258   0.00000E+00
     259   0.00000E+00
     260   0.00000E+00
     261   0.00000E+00
     262   0.00000E+00
     263   0.00000E+00
     264   0.00000E+00
     265   0.00000E+00
     266   0.00000E+00
     267   0.00000E+00
     268   0.00000E+00
     269   0.00000E+00
     270   0.00000E+00
     271   0.00000E+00
     272   0.00000E+00
     273   0.00000E+00
     274   0.00000E+00
     275   0.00000E+00
     276   0.00000E+00
     277   0.00000E+00
     278   0.00000E+00
     279   0.00000E+00
     280   0.00000E+00
     281   0.00000E+00
     282   0.00000E+00
     283   0.00000E+00
     284   0.00000E+00
     285   0.00000E+00
     286   0.00000E+00
     287   0.00000E+00
     288   0.00000E+00
     289   0.00000E+00
     290   0.00000E+00
     291   0.00000E+00
     292   0.00000E+00
     293   0.00000E+00
     294   0.00000E+00
     295   0.00000E+00
     296   0.00000E+00
     297   0.00000E+00
     298   0.00000E+00
     299   0.00000E+00
     300   0.00000E+00
  ------------ 
  k    averhoc
           1  1.228705710621548E-010
           2  1.292438060314001E-010
           3  1.490198084880698E-010
           4  1.842299158242716E-010
           5  2.384974396393579E-010
           6  3.173644024565432E-010
           7  4.291188234833720E-010
           8  5.853792075948833E-010
           9  8.021602411229579E-010
          10  1.101610763471709E-009
          11  1.515306919226680E-009
          12  2.085822619884080E-009
          13  2.871244760770008E-009
          14  3.954497569908827E-009
          15  5.446459805749323E-009
          16  7.500492610327288E-009
          17  1.033214553369251E-008
          18  1.422839083052678E-008
          19  1.960004650108114E-008
          20  2.699193605941367E-008
          21  3.718071161170207E-008
          22  5.120245863020737E-008
          23  7.051625508315662E-008
          24  9.712251917771718E-008
          25  1.337491891305367E-007
          26  1.841808864509660E-007
          27  2.536399084208641E-007
          28  3.492808619833999E-007
          29  4.809456029805374E-007
          30  6.621975978839833E-007
          31  9.117357937036619E-007
          32  1.255222071773956E-006
          33  1.727940746118672E-006
          34  2.378701486132960E-006
          35  3.274093715233518E-006
          36  4.506003946687520E-006
          37  6.200297059804932E-006
          38  8.531501772624642E-006
          39  1.173626169090889E-005
          40  1.614272671587321E-005
          41  2.219493081115868E-005
          42  3.050981309393021E-005
          43  4.192532518785549E-005
          44  5.757964304643593E-005
          45  7.903621548286279E-005
          46  1.083979185336471E-004
          47  1.485283734119438E-004
          48  2.032913518517173E-004
          49  2.778130679244127E-004
          50  3.789411930484297E-004
          51  5.156095705323635E-004
          52  6.994505510944877E-004
          53  9.453849563663966E-004
          54  1.271878847954740E-003
          55  1.699648633262049E-003
          56  2.249634859364977E-003
          57  2.940694226273375E-003
          58  3.786627377296170E-003
          59  4.794206111570872E-003
          60  5.960855975751380E-003
          61  7.273316765796399E-003
          62  8.706901190069378E-003
          63  1.022621970697934E-002
          64  1.178573128015896E-002
          65  1.333227739933557E-002
          66  1.480779845261790E-002
          67  1.615278042862237E-002
          68  1.730994595746704E-002
          69  1.822783155812985E-002
          70  1.886465172563923E-002
          71  1.919078108989663E-002
          72  1.919078108989663E-002
          73  1.886465172563923E-002
          74  1.822783155812985E-002
          75  1.730994595746704E-002
          76  1.615278042862237E-002
          77  1.480779845261790E-002
          78  1.333227739933557E-002
          79  1.178573128015896E-002
          80  1.022621970697934E-002
          81  8.706901190069378E-003
          82  7.273316765796404E-003
          83  5.960855975751380E-003
          84  4.794206111570872E-003
          85  3.786627377296166E-003
          86  2.940694226273373E-003
          87  2.249634859364981E-003
          88  1.699648633262049E-003
          89  1.271878847954740E-003
          90  9.453849563663955E-004
          91  6.994505510944904E-004
          92  5.156095705323648E-004
          93  3.789411930484297E-004
          94  2.778130679244127E-004
          95  2.032913518517169E-004
          96  1.485283734119442E-004
          97  1.083979185336474E-004
          98  7.903621548286279E-005
          99  5.757964304643593E-005
         100  4.192532518785541E-005
         101  3.050981309393027E-005
         102  2.219493081115869E-005
         103  1.614272671587321E-005
         104  1.173626169090888E-005
         105  8.531501772624608E-006
         106  6.200297059804951E-006
         107  4.506003946687526E-006
         108  3.274093715233518E-006
         109  2.378701486132955E-006
         110  1.727940746118667E-006
         111  1.255222071773960E-006
         112  9.117357937036619E-007
         113  6.621975978839833E-007
         114  4.809456029805374E-007
         115  3.492808619833990E-007
         116  2.536399084208641E-007
         117  1.841808864509660E-007
         118  1.337491891305367E-007
         119  9.712251917771718E-008
         120  7.051625508315630E-008
         121  5.120245863020737E-008
         122  3.718071161170207E-008
         123  2.699193605941367E-008
         124  1.960004650108114E-008
         125  1.422839083052682E-008
         126  1.033214553369251E-008
         127  7.500492610327288E-009
         128  5.446459805749323E-009
         129  3.954497569908818E-009
         130  2.871244760770011E-009
         131  2.085822619884080E-009
         132  1.515306919226680E-009
         133  1.101610763471709E-009
         134  8.021602411229560E-010
         135  5.853792075948842E-010
         136  4.291188234833720E-010
         137  3.173644024565432E-010
         138  2.384974396393579E-010
         139  1.842299158242712E-010
         140  1.490198084880699E-010
         141  1.292438060314001E-010
  ------------ 
  k    rhog_core(k)
       1   0.25837E-02   0.00000E+00
       2  -0.24392E-02  -0.20621E-19
       3  -0.24392E-02  -0.16332E-19
       4  -0.24392E-02  -0.46736E-19
       5  -0.24392E-02  -0.25469E-19
       6  -0.24392E-02  -0.29633E-19
       7  -0.24392E-02  -0.31064E-19
       8   0.23033E-02   0.49507E-19
       9   0.23033E-02   0.66247E-19
      10   0.23033E-02   0.50402E-19
      11   0.23033E-02   0.44140E-19
      12   0.23033E-02   0.65872E-19
      13   0.23033E-02   0.27175E-19
      14   0.23033E-02   0.13407E-18
      15   0.23033E-02   0.53759E-19
      16   0.23033E-02   0.39647E-19
      17   0.23033E-02   0.60416E-19
      18   0.23033E-02   0.54272E-19
      19   0.23033E-02   0.58381E-19
      20  -0.21755E-02  -0.58146E-19
      21  -0.21755E-02  -0.80260E-19
      22  -0.21755E-02  -0.64857E-19
      23  -0.21755E-02  -0.60378E-19
      24  -0.21755E-02  -0.52113E-19
      25  -0.21755E-02  -0.67387E-19
      26  -0.21755E-02  -0.69689E-19
      27  -0.21755E-02  -0.84455E-19
      28   0.20553E-02   0.74244E-19
      29   0.20553E-02   0.66252E-19
      30   0.20553E-02   0.98507E-19
      31   0.20553E-02  -0.13161E-19
      32   0.20553E-02  -0.20802E-19
      33   0.20553E-02  -0.16445E-19
      34  -0.19421E-02  -0.87900E-19
      35  -0.19421E-02  -0.11364E-18
      36  -0.19421E-02  -0.83254E-19
      37  -0.19421E-02  -0.91458E-19
      38  -0.19421E-02  -0.69939E-19
      39  -0.19421E-02  -0.74678E-19
      40  -0.19421E-02   0.79736E-21
      41  -0.19421E-02  -0.34340E-20
      42  -0.19421E-02  -0.79628E-19
      43  -0.19421E-02  -0.91159E-19
      44  -0.19421E-02  -0.27496E-19
      45  -0.19421E-02  -0.15522E-19
      46  -0.19421E-02  -0.30730E-19
      47  -0.19421E-02  -0.37609E-19
      48  -0.19421E-02  -0.93816E-20
      49  -0.19421E-02  -0.39559E-20
      50  -0.19421E-02  -0.71250E-19
      51  -0.19421E-02  -0.33267E-19
      52  -0.19421E-02  -0.20851E-20
      53  -0.19421E-02  -0.97521E-20
      54  -0.19421E-02   0.14580E-20
      55  -0.19421E-02   0.27284E-19
      56  -0.19421E-02  -0.87334E-20
      57  -0.19421E-02  -0.80163E-20
      58   0.18355E-02   0.12000E-18
      59   0.18355E-02   0.10600E-18
      60   0.18355E-02   0.11483E-18
      61   0.18355E-02   0.10590E-18
      62   0.18355E-02   0.10328E-18
      63   0.18355E-02   0.87548E-19
      64   0.18355E-02   0.13751E-18
      65   0.18355E-02   0.12120E-19
      66   0.18355E-02   0.15102E-18
      67   0.18355E-02  -0.48303E-20
      68   0.18355E-02   0.50862E-19
      69   0.18355E-02   0.19552E-19
      70   0.18355E-02   0.10637E-18
      71   0.18355E-02   0.81521E-19
      72   0.18355E-02   0.12932E-18
      73   0.18355E-02   0.57819E-21
      74   0.18355E-02   0.11089E-18
      75   0.18355E-02   0.31868E-19
      76   0.18355E-02   0.65497E-19
      77   0.18355E-02   0.14403E-19
      78   0.18355E-02   0.53142E-19
      79   0.18355E-02   0.18723E-19
      80   0.18355E-02   0.53537E-19
      81   0.18355E-02   0.29144E-19
      82   0.16403E-02   0.11859E-18
      83   0.16403E-02   0.11333E-18
      84   0.16403E-02   0.81406E-19
      85   0.16403E-02   0.43539E-19
      86   0.16403E-02   0.11591E-18
      87   0.16403E-02   0.56979E-19
      88   0.16403E-02   0.14192E-19
      89   0.16403E-02   0.24301E-20
      90   0.16403E-02   0.56392E-19
      91   0.16403E-02   0.52445E-19
      92   0.16403E-02  -0.33647E-20
      93   0.16403E-02  -0.25765E-19
      94  -0.15510E-02   0.35151E-19
      95  -0.15510E-02  -0.12412E-18
      96  -0.15510E-02  -0.13877E-18
      97  -0.15510E-02  -0.12346E-18
      98  -0.15510E-02  -0.48197E-19
      99  -0.15510E-02  -0.14792E-18
     100  -0.15510E-02  -0.22726E-19
 1492913  -0.64721E-09   0.17612E-20
 1492914  -0.64721E-09   0.33171E-20
 1492915  -0.64721E-09   0.11794E-20
 1492916  -0.64721E-09   0.66614E-21
 1492917  -0.64721E-09  -0.37377E-21
 1492918   0.14127E-08  -0.37820E-21
 1492919   0.14127E-08   0.11656E-20
 1492920   0.14127E-08   0.17730E-20
 1492921   0.14127E-08  -0.56621E-21
 1492922   0.14127E-08   0.25616E-20
 1492923   0.14127E-08   0.11877E-21
 1492924   0.14127E-08  -0.29378E-20
 1492925   0.14127E-08  -0.16331E-20
 1492926   0.52480E-09   0.32426E-20
 1492927   0.52480E-09   0.44101E-20
 1492928   0.52480E-09   0.41607E-20
 1492929   0.52480E-09   0.23721E-20
 1492930   0.52480E-09   0.47529E-20
 1492931   0.52480E-09   0.28056E-20
 1492932   0.52480E-09   0.16868E-20
 1492933   0.52480E-09   0.27112E-20
 1492934   0.12163E-08  -0.18992E-20
 1492935   0.12163E-08   0.78250E-21
 1492936   0.12163E-08  -0.11110E-20
 1492937   0.12163E-08   0.34257E-21
 1492938   0.12163E-08  -0.65912E-21
 1492939   0.12163E-08   0.11857E-20
 1492940   0.12163E-08  -0.16736E-20
 1492941   0.12163E-08   0.11960E-20
 1492942   0.12163E-08  -0.96463E-21
 1492943   0.12163E-08   0.36612E-20
 1492944   0.14127E-08  -0.84990E-21
 1492945   0.14127E-08   0.77426E-21
 1492946  -0.64721E-09   0.67772E-21
 1492947  -0.64721E-09  -0.25123E-21
 1492948  -0.64721E-09   0.37728E-21
 1492949  -0.64721E-09   0.20435E-21
 1492950   0.14127E-08  -0.52853E-21
 1492951   0.14127E-08   0.10286E-21
 1492952   0.12163E-08  -0.20057E-20
 1492953   0.12163E-08  -0.19697E-20
 1492954   0.12163E-08   0.43242E-21
 1492955   0.12163E-08   0.49191E-21
 1492956   0.14127E-08   0.75497E-21
 1492957   0.14127E-08   0.14207E-20
 1492958  -0.64721E-09  -0.64606E-21
 1492959  -0.64721E-09  -0.10526E-20
 1492960  -0.64721E-09   0.97210E-21
 1492961  -0.64721E-09  -0.37721E-22
 1492962   0.14127E-08   0.26079E-21
 1492963   0.14127E-08   0.18762E-20
 1492964   0.12163E-08  -0.15041E-20
 1492965   0.12163E-08   0.31135E-20
 1492966   0.37045E-09   0.10288E-20
 1492967   0.37045E-09   0.41233E-21
 1492968   0.37045E-09   0.21786E-20
 1492969   0.37045E-09  -0.18098E-20
 1492970   0.37045E-09   0.14225E-20
 1492971   0.37045E-09  -0.22560E-20
 1492972   0.37045E-09  -0.20091E-20
 1492973   0.37045E-09  -0.22959E-20
 1492974   0.90134E-10  -0.18313E-20
 1492975   0.90134E-10  -0.35047E-21
 1492976   0.11601E-09  -0.19579E-21
 1492977   0.11601E-09  -0.11433E-20
 1492978   0.11601E-09  -0.80202E-21
 1492979   0.11601E-09   0.90143E-22
 1492980   0.90134E-10   0.57964E-22
 1492981   0.90134E-10   0.62093E-21
 1492982   0.90134E-10   0.42236E-21
 1492983   0.90134E-10   0.90759E-21
 1492984   0.11601E-09  -0.21719E-20
 1492985   0.11601E-09  -0.12062E-20
 1492986   0.11601E-09   0.63036E-22
 1492987   0.11601E-09  -0.81286E-21
 1492988   0.90134E-10  -0.60702E-21
 1492989   0.90134E-10   0.79103E-21
 1492990   0.53530E-09   0.99930E-21
 1492991   0.53530E-09   0.85386E-22
 1492992   0.53530E-09   0.55085E-21
 1492993   0.53530E-09   0.32015E-20
 1492994   0.53530E-09   0.96866E-21
 1492995   0.53530E-09   0.34284E-20
 1492996   0.53530E-09   0.29748E-20
 1492997   0.53530E-09   0.18750E-20
 1492998  -0.13939E-09   0.35507E-21
 1492999  -0.13939E-09   0.30236E-21
 1493000   0.21700E-09  -0.23351E-21
 1493001   0.21700E-09   0.96233E-22
 1493002   0.21700E-09  -0.14173E-21
 1493003   0.21700E-09  -0.12392E-21
 1493004  -0.13939E-09   0.10028E-20
 1493005  -0.13939E-09   0.13132E-20
 1493006  -0.13939E-09   0.93054E-21
 1493007  -0.13939E-09   0.10752E-20
 1493008   0.21700E-09  -0.13974E-21
 1493009   0.21700E-09  -0.19339E-21
 1493010   0.21700E-09  -0.80338E-21
 1493011   0.21700E-09  -0.53692E-21
 1493012  -0.13939E-09   0.51379E-21
 1493013  -0.13939E-09   0.27635E-21
  ------------ 

     Initial potential from superposition of free atoms
     Check: negative starting charge=(component1):   -0.000166
     Check: negative starting charge=(component2):   -0.000166

     starting charge    9.99575, renormalised to   10.00000

     negative rho (up, down):  1.658E-04 1.658E-04
     Starting wfc are   16 randomized atomic wfcs +    9 random wfc

     total cpu time spent up to now is      148.1 secs

     per-process dynamical memory:  1420.3 Mb

     Self-consistent Calculation

     iteration #  1     ecut=   200.00 Ry     beta=0.70
     Davidson diagonalization with overlap
     ethr =  1.00E-02,  avg # of iterations = 10.4

     negative rho (up, down):  3.446E-05 5.067E-05

     total cpu time spent up to now is      704.1 secs

     total energy              =     -82.28526544 Ry
     Harris-Foulkes estimate   =     -81.61971069 Ry
     estimated scf accuracy    <       2.60669429 Ry

     total magnetization       =     8.00 Bohr mag/cell
     absolute magnetization    =     8.00 Bohr mag/cell

     iteration #  2     ecut=   200.00 Ry     beta=0.70
     Davidson diagonalization with overlap
     ethr =  1.00E-02,  avg # of iterations =  1.5

     total cpu time spent up to now is      958.8 secs

     total energy              =     -82.72462614 Ry
     Harris-Foulkes estimate   =     -82.52754584 Ry
     estimated scf accuracy    <       0.51359776 Ry

     total magnetization       =     8.00 Bohr mag/cell
     absolute magnetization    =     8.00 Bohr mag/cell

     iteration #  3     ecut=   200.00 Ry     beta=0.70
     Davidson diagonalization with overlap
     ethr =  5.14E-03,  avg # of iterations =  1.0

     total cpu time spent up to now is     1214.4 secs

     total energy              =     -82.75211684 Ry
     Harris-Foulkes estimate   =     -82.73683403 Ry
     estimated scf accuracy    <       0.05456091 Ry

     total magnetization       =     8.00 Bohr mag/cell
     absolute magnetization    =     8.01 Bohr mag/cell

     iteration #  4     ecut=   200.00 Ry     beta=0.70
     Davidson diagonalization with overlap
     ethr =  5.46E-04,  avg # of iterations =  5.9

     negative rho (up, down):  4.730E-05 2.743E-05

     total cpu time spent up to now is     1633.1 secs

     total energy              =     -82.75431535 Ry
     Harris-Foulkes estimate   =     -82.75561482 Ry
     estimated scf accuracy    <       0.00286067 Ry

     total magnetization       =     8.00 Bohr mag/cell
     absolute magnetization    =     8.01 Bohr mag/cell

     iteration #  5     ecut=   200.00 Ry     beta=0.70
     Davidson diagonalization with overlap
     ethr =  2.86E-05,  avg # of iterations =  5.2

     negative rho (up, down):  6.196E-05 4.728E-05

     total cpu time spent up to now is     2629.4 secs

     total energy              =     -82.75434645 Ry
     Harris-Foulkes estimate   =     -82.75463285 Ry
     estimated scf accuracy    <       0.00042551 Ry

     total magnetization       =     8.00 Bohr mag/cell
     absolute magnetization    =     8.01 Bohr mag/cell

     iteration #  6     ecut=   200.00 Ry     beta=0.70
     Davidson diagonalization with overlap
     ethr =  4.26E-06,  avg # of iterations =  4.5

     negative rho (up, down):  3.579E-05 2.377E-05

     total cpu time spent up to now is     3175.0 secs

     total energy              =     -82.75443138 Ry
     Harris-Foulkes estimate   =     -82.75442415 Ry
     estimated scf accuracy    <       0.00002537 Ry

     total magnetization       =     8.00 Bohr mag/cell
     absolute magnetization    =     8.01 Bohr mag/cell

     iteration #  7     ecut=   200.00 Ry     beta=0.70
     Davidson diagonalization with overlap
     ethr =  2.54E-07,  avg # of iterations =  6.9

     negative rho (up, down):  1.602E-07 3.270E-10

     total cpu time spent up to now is     3799.3 secs

     total energy              =     -82.75444038 Ry
     Harris-Foulkes estimate   =     -82.75443437 Ry
     estimated scf accuracy    <       0.00000749 Ry

     total magnetization       =     8.00 Bohr mag/cell
     absolute magnetization    =     8.01 Bohr mag/cell

     iteration #  8     ecut=   200.00 Ry     beta=0.70
     Davidson diagonalization with overlap
     ethr =  7.49E-08,  avg # of iterations =  5.2
 
     Magnetic moment per site:
     atom:    1    charge:    7.2335    magn:    7.1540    constr:    0.0000

     total cpu time spent up to now is     4132.1 secs

     End of self-consistent calculation

 ------ SPIN UP ------------


          k = 0.0000 0.0000 0.0000 (186623 PWs)   bands (ev):

   -11.2010 -11.1842 -11.1842 -11.1842 -11.1743 -11.1743 -11.1743  -3.7453
    -2.4206  -2.4206  -2.2507  -2.2507  -2.2507  -0.4803  -0.4803  -0.4803
     0.2741   1.4221   1.4221   2.6630   2.6630   2.6630   3.1093   3.2158
     3.2158

          k = 0.0000 0.0000-0.1429 (186630 PWs)   bands (ev):

   -11.1974 -11.1875 -11.1858 -11.1858 -11.1751 -11.1751 -11.1714  -3.6969
    -2.4184  -2.3799  -2.2632  -2.2632  -2.2497  -1.0953  -0.4028  -0.4028
     0.8262   1.4283   1.7142   2.1167   2.1167   2.1208   3.0140   3.1375
     3.1375

          k = 0.0000-0.1429-0.1429 (186716 PWs)   bands (ev):

   -11.2014 -11.1891 -11.1868 -11.1868 -11.1767 -11.1726 -11.1726  -3.6503
    -2.3973  -2.3604  -2.2806  -2.2617  -2.2617  -0.9774  -0.9774  -0.3321
     0.8138   1.4453   1.9696   1.9696   2.4349   2.4349   2.7882   3.0142
     3.1211

          k =-0.1429-0.1429-0.1429 (186352 PWs)   bands (ev):

   -11.1986 -11.1821 -11.1821 -11.1821 -11.1697 -11.1697 -11.1697  -3.6052
    -2.3597  -2.3597  -2.2781  -2.2781  -2.2781  -0.8739  -0.8739  -0.8739
     1.1611   1.1611   1.1611   1.5086   3.0857   3.0857   3.0857   3.6702
     4.4649

 ------ SPIN DOWN ----------


          k = 0.0000 0.0000 0.0000 (186623 PWs)   bands (ev):

    -3.3342  -1.1989  -1.1989  -1.1989  -1.1946  -1.1946  -0.2691  -0.2691
    -0.2691   0.0809   0.1419   0.1419   0.1419   0.1927   0.1927   0.1927
     0.3836   1.6793   1.6793   2.7616   2.7616   2.7616   3.2023   3.2646
     3.2646

          k = 0.0000 0.0000-0.1429 (186630 PWs)   bands (ev):

    -3.2711  -1.2289  -1.2289  -1.1963  -1.1857  -1.0963  -0.9522  -0.1751
    -0.1751   0.0839   0.1375   0.1418   0.1418   0.1889   0.1920   0.1920
     0.9905   1.5278   2.0250   2.1434   2.2622   2.2622   3.1307   3.2293
     3.2293

          k = 0.0000-0.1429-0.1429 (186716 PWs)   bands (ev):

    -3.2109  -1.2785  -1.2247  -1.2247  -1.1358  -1.0429  -0.8136  -0.8136
    -0.0888   0.0795   0.1394   0.1400   0.1400   0.1889   0.1889   0.1905
     0.9338   1.6863   2.0592   2.0592   2.6167   2.6167   2.7981   3.0489
     3.2556

          k =-0.1429-0.1429-0.1429 (186352 PWs)   bands (ev):

    -3.1528  -1.2692  -1.2692  -1.2692  -1.0409  -1.0409  -0.6913  -0.6913
    -0.6913   0.0809   0.1458   0.1458   0.1458   0.1927   0.1927   0.1927
     1.3029   1.3029   1.3029   1.5112   3.2742   3.2742   3.2742   3.9022
     4.5739

     highest occupied, lowest unoccupied level (ev):    -2.3597   -2.4206

!    total energy              =     -82.75444032 Ry
     Harris-Foulkes estimate   =     -82.75444091 Ry
     estimated scf accuracy    <       0.00000052 Ry

     The total energy is the sum of the following terms:

     one-electron contribution =     -85.85966394 Ry
     hartree contribution      =      50.27752001 Ry
     xc contribution           =     -29.15770922 Ry
     ewald contribution        =     -18.01458717 Ry

     total magnetization       =     8.00 Bohr mag/cell
     absolute magnetization    =     8.01 Bohr mag/cell

     convergence has been achieved in   8 iterations

     Forces acting on atoms (Ry/au):

     atom    1 type  1   force =     0.00000000    0.00000000    0.00000000

     Total force =     0.000000     Total SCF correction =     0.000000


     entering subroutine stress ...

          total   stress  (Ry/bohr**3)                   (kbar)     P=  -45.93
  -0.00031220   0.00000000   0.00000000        -45.93      0.00      0.00
   0.00000000  -0.00031220   0.00000000          0.00    -45.93      0.00
   0.00000000   0.00000000  -0.00031220          0.00      0.00    -45.93


     Writing output data file Gd.save
 
     init_run     :    102.56s CPU    146.73s WALL (       1 calls)
     electrons    :   3788.72s CPU   3984.33s WALL (       1 calls)
     forces       :      3.11s CPU      3.38s WALL (       1 calls)
     stress       :     17.55s CPU     24.11s WALL (       1 calls)

     Called by init_run:
     wfcinit      :     80.60s CPU     82.18s WALL (       1 calls)
     potinit      :      1.46s CPU      1.66s WALL (       1 calls)

     Called by electrons:
     c_bands      :   1890.22s CPU   1912.82s WALL (       8 calls)
     sum_band     :    339.95s CPU    507.76s WALL (       8 calls)
     v_of_rho     :      5.03s CPU      5.38s WALL (       9 calls)
     mix_rho      :   1553.42s CPU   1557.92s WALL (       8 calls)

     Called by c_bands:
     init_us_2    :      6.25s CPU     10.38s WALL (     152 calls)
     cegterg      :   1877.14s CPU   1897.56s WALL (      64 calls)

     Called by sum_band:

     Called by *egterg:
     h_psi        :   1875.03s CPU   1875.60s WALL (     397 calls)
     g_psi        :      3.48s CPU      3.47s WALL (     325 calls)
     cdiaghg      :      0.46s CPU      0.57s WALL (     389 calls)

     Called by h_psi:
     h_psi:pot    :   1870.79s CPU   1871.03s WALL (     397 calls)
     h_psi:calbec :      5.63s CPU      5.68s WALL (     397 calls)
     vloc_psi     :   1857.29s CPU   1857.54s WALL (     397 calls)
     add_vuspsi   :      7.87s CPU      7.81s WALL (     397 calls)

     General routines
     calbec       :      6.68s CPU      6.73s WALL (     437 calls)
     fft          :     12.64s CPU     12.75s WALL (      69 calls)
     ffts         :   1102.39s CPU   1102.66s WALL (    6023 calls)
     fftw         :   2088.24s CPU   2088.34s WALL (   11418 calls)
     davcio       :      0.00s CPU      0.91s WALL (       8 calls)
 
 
     PWSCF        :     1h 5m CPU        1h 9m WALL

 
   This run was terminated on:  12:33:43  27Jul2018            

=------------------------------------------------------------------------------=
   JOB DONE.
=------------------------------------------------------------------------------=
