
     Program PWSCF v.6.0 (svn rev. 13079) starts on 26Jul2018 at 19:54:41 

     This program is part of the open-source Quantum ESPRESSO suite
     for quantum simulation of materials; please cite
         "P. Giannozzi et al., J. Phys.:Condens. Matter 21 395502 (2009);
          URL http://www.quantum-espresso.org", 
     in publications or presentations arising from this work. More details at
     http://www.quantum-espresso.org/quote

     Serial version
     Waiting for input...
     Reading input from standard input
     Message from routine read_cards :
     DEPRECATED: no units specified in CELL_PARAMETERS card

     Current dimensions of program PWSCF are:
     Max number of different atomic species (ntypx) = 10
     Max number of k-points (npk) =  40000
     Max angular momentum in pseudopotentials (lmaxx) =  3
 
     G-vector sticks info
     --------------------
     sticks:   dense  smooth     PW     G-vecs:    dense   smooth      PW
     Sum       11873   11873   3125               970115   970115  131827
 


     bravais-lattice index     =            0
     lattice parameter (alat)  =       4.5000  a.u.
     unit-cell volume          =    3906.9844 (a.u.)^3
     number of atoms/cell      =            1
     number of atomic types    =            1
     number of electrons       =         6.00
     number of Kohn-Sham states=           25
     kinetic-energy cutoff     =     150.0000  Ry
     charge density cutoff     =     600.0000  Ry
     convergence threshold     =      5.0E-06
     mixing beta               =       0.7000
     number of iterations used =            4  local-TF  mixing
     Exchange-correlation      = PZ ( 1  1  0  0 0 0)

     celldm(1)=   4.500000  celldm(2)=   0.000000  celldm(3)=   0.000000
     celldm(4)=   0.000000  celldm(5)=   0.000000  celldm(6)=   0.000000

     crystal axes: (cart. coord. in units of alat)
               a(1) = (   3.500000   0.000000   0.000000 )  
               a(2) = (   0.000000   3.500000   0.000000 )  
               a(3) = (   0.000000   0.000000   3.500000 )  

     reciprocal axes: (cart. coord. in units 2 pi/alat)
               b(1) = (  0.285714  0.000000  0.000000 )  
               b(2) = (  0.000000  0.285714  0.000000 )  
               b(3) = (  0.000000  0.000000  0.285714 )  


     PseudoPot. # 1 for  S read from file:
     ./S.UPF
     MD5 check sum: 36bc13bc877f2f8c47602f004bb010c4
     Pseudo is Norm-conserving + core correction, Zval =  6.0
     Generated using "atomic" code by A. Dal Corso  v.6.0 svn rev. 13079
     Using radial grid of 1151 points,  2 beta functions with: 
                l(1) =   0
                l(2) =   1

     atomic species   valence    mass     pseudopotential
        S              6.00    12.00000      S( 1.00)

     Starting magnetic structure 
     atomic species   magnetization
        S            0.010

     48 Sym. Ops., with inversion, found



   Cartesian axes

     site n.     atom                  positions (alat units)
         1           S   tau(   1) = (   1.7500000   1.7500000   1.7500000  )

     number of k points=     4  gaussian smearing, width (Ry)=  0.0030
                       cart. coord. in units 2pi/alat
        k(    1) = (   0.0000000   0.0000000   0.0000000), wk =   0.1250000
        k(    2) = (   0.0000000   0.0000000  -0.1428571), wk =   0.3750000
        k(    3) = (   0.0000000  -0.1428571  -0.1428571), wk =   0.3750000
        k(    4) = (  -0.1428571  -0.1428571  -0.1428571), wk =   0.1250000

     Dense  grid:   970115 G-vectors     FFT dimensions: ( 123, 123, 123)

     Estimated max dynamical RAM per process >    1483.95Mb
     Generating pointlists ...
     new r_m :   0.4125 (alat units)  1.8563 (a.u.) for type    1
dfftp%nnr =1860867
    123    123    123    123    123    123
SIZE(dfftp%isind) =   15129
bg(1:3,1):   0.2857  0.0000  0.0000
bg(1:3,2):   0.0000  0.2857  0.0000
bg(1:3,3):   0.0000  0.0000  0.2857
at(1:3,1):   3.5000  0.0000  0.0000
at(1:3,2):   0.0000  3.5000  0.0000
at(1:3,3):   0.0000  0.0000  3.5000
nt =     1 na =    1
tau(:,na) =    1.75000   1.75000   1.75000
  k    rho_core(k)
       1   0.00000E+00
       2   0.00000E+00
       3   0.00000E+00
       4   0.00000E+00
       5   0.00000E+00
       6   0.00000E+00
       7   0.00000E+00
       8   0.00000E+00
       9   0.00000E+00
      10   0.00000E+00
      11   0.00000E+00
      12   0.00000E+00
      13   0.00000E+00
      14   0.00000E+00
      15   0.00000E+00
      16   0.00000E+00
      17   0.00000E+00
      18   0.00000E+00
      19   0.00000E+00
      20   0.00000E+00
      21   0.00000E+00
      22   0.00000E+00
      23   0.00000E+00
      24   0.00000E+00
      25   0.00000E+00
      26   0.00000E+00
      27   0.00000E+00
      28   0.00000E+00
      29   0.00000E+00
      30   0.00000E+00
      31   0.00000E+00
      32   0.00000E+00
      33   0.00000E+00
      34   0.00000E+00
      35   0.00000E+00
      36   0.00000E+00
      37   0.00000E+00
      38   0.00000E+00
      39   0.00000E+00
      40   0.00000E+00
      41   0.00000E+00
      42   0.00000E+00
      43   0.00000E+00
      44   0.00000E+00
      45   0.00000E+00
      46   0.00000E+00
      47   0.00000E+00
      48   0.00000E+00
      49   0.00000E+00
      50   0.00000E+00
      51   0.00000E+00
      52   0.00000E+00
      53   0.00000E+00
      54   0.00000E+00
      55   0.00000E+00
      56   0.00000E+00
      57   0.00000E+00
      58   0.00000E+00
      59   0.00000E+00
      60   0.00000E+00
      61   0.00000E+00
      62   0.00000E+00
      63   0.00000E+00
      64   0.00000E+00
      65   0.00000E+00
      66   0.00000E+00
      67   0.00000E+00
      68   0.00000E+00
      69   0.00000E+00
      70   0.00000E+00
      71   0.00000E+00
      72   0.00000E+00
      73   0.00000E+00
      74   0.00000E+00
      75   0.00000E+00
      76   0.00000E+00
      77   0.00000E+00
      78   0.00000E+00
      79   0.00000E+00
      80   0.00000E+00
      81   0.00000E+00
      82   0.00000E+00
      83   0.00000E+00
      84   0.00000E+00
      85   0.00000E+00
      86   0.00000E+00
      87   0.00000E+00
      88   0.00000E+00
      89   0.00000E+00
      90   0.00000E+00
      91   0.00000E+00
      92   0.00000E+00
      93   0.00000E+00
      94   0.00000E+00
      95   0.00000E+00
      96   0.00000E+00
      97   0.00000E+00
      98   0.00000E+00
      99   0.00000E+00
     100   0.00000E+00
     101   0.00000E+00
     102   0.00000E+00
     103   0.00000E+00
     104   0.00000E+00
     105   0.00000E+00
     106   0.00000E+00
     107   0.00000E+00
     108   0.00000E+00
     109   0.00000E+00
     110   0.00000E+00
     111   0.00000E+00
     112   0.00000E+00
     113   0.00000E+00
     114   0.00000E+00
     115   0.00000E+00
     116   0.00000E+00
     117   0.00000E+00
     118   0.00000E+00
     119   0.00000E+00
     120   0.00000E+00
     121   0.00000E+00
     122   0.00000E+00
     123   0.00000E+00
     124   0.00000E+00
     125   0.00000E+00
     126   0.00000E+00
     127   0.00000E+00
     128   0.00000E+00
     129   0.00000E+00
     130   0.00000E+00
     131   0.00000E+00
     132   0.00000E+00
     133   0.00000E+00
     134   0.00000E+00
     135   0.00000E+00
     136   0.00000E+00
     137   0.00000E+00
     138   0.00000E+00
     139   0.00000E+00
     140   0.00000E+00
     141   0.00000E+00
     142   0.00000E+00
     143   0.00000E+00
     144   0.00000E+00
     145   0.00000E+00
     146   0.00000E+00
     147   0.00000E+00
     148   0.00000E+00
     149   0.00000E+00
     150   0.00000E+00
     151   0.00000E+00
     152   0.00000E+00
     153   0.00000E+00
     154   0.00000E+00
     155   0.00000E+00
     156   0.00000E+00
     157   0.00000E+00
     158   0.00000E+00
     159   0.00000E+00
     160   0.00000E+00
     161   0.00000E+00
     162   0.00000E+00
     163   0.00000E+00
     164   0.00000E+00
     165   0.00000E+00
     166   0.00000E+00
     167   0.00000E+00
     168   0.00000E+00
     169   0.00000E+00
     170   0.00000E+00
     171   0.00000E+00
     172   0.00000E+00
     173   0.00000E+00
     174   0.00000E+00
     175   0.00000E+00
     176   0.00000E+00
     177   0.00000E+00
     178   0.00000E+00
     179   0.00000E+00
     180   0.00000E+00
     181   0.00000E+00
     182   0.00000E+00
     183   0.00000E+00
     184   0.00000E+00
     185   0.00000E+00
     186   0.00000E+00
     187   0.00000E+00
     188   0.00000E+00
     189   0.00000E+00
     190   0.00000E+00
     191   0.00000E+00
     192   0.00000E+00
     193   0.00000E+00
     194   0.00000E+00
     195   0.00000E+00
     196   0.00000E+00
     197   0.00000E+00
     198   0.00000E+00
     199   0.00000E+00
     200   0.00000E+00
     201   0.00000E+00
     202   0.00000E+00
     203   0.00000E+00
     204   0.00000E+00
     205   0.00000E+00
     206   0.00000E+00
     207   0.00000E+00
     208   0.00000E+00
     209   0.00000E+00
     210   0.00000E+00
     211   0.00000E+00
     212   0.00000E+00
     213   0.00000E+00
     214   0.00000E+00
     215   0.00000E+00
     216   0.00000E+00
     217   0.00000E+00
     218   0.00000E+00
     219   0.00000E+00
     220   0.00000E+00
     221   0.00000E+00
     222   0.00000E+00
     223   0.00000E+00
     224   0.00000E+00
     225   0.00000E+00
     226   0.00000E+00
     227   0.00000E+00
     228   0.00000E+00
     229   0.00000E+00
     230   0.00000E+00
     231   0.00000E+00
     232   0.00000E+00
     233   0.00000E+00
     234   0.00000E+00
     235   0.00000E+00
     236   0.00000E+00
     237   0.00000E+00
     238   0.00000E+00
     239   0.00000E+00
     240   0.00000E+00
     241   0.00000E+00
     242   0.00000E+00
     243   0.00000E+00
     244   0.00000E+00
     245   0.00000E+00
     246   0.00000E+00
     247   0.00000E+00
     248   0.00000E+00
     249   0.00000E+00
     250   0.00000E+00
     251   0.00000E+00
     252   0.00000E+00
     253   0.00000E+00
     254   0.00000E+00
     255   0.00000E+00
     256   0.00000E+00
     257   0.00000E+00
     258   0.00000E+00
     259   0.00000E+00
     260   0.00000E+00
     261   0.00000E+00
     262   0.00000E+00
     263   0.00000E+00
     264   0.00000E+00
     265   0.00000E+00
     266   0.00000E+00
     267   0.00000E+00
     268   0.00000E+00
     269   0.00000E+00
     270   0.00000E+00
     271   0.00000E+00
     272   0.00000E+00
     273   0.00000E+00
     274   0.00000E+00
     275   0.00000E+00
     276   0.00000E+00
     277   0.00000E+00
     278   0.00000E+00
     279   0.00000E+00
     280   0.00000E+00
     281   0.00000E+00
     282   0.00000E+00
     283   0.00000E+00
     284   0.00000E+00
     285   0.00000E+00
     286   0.00000E+00
     287   0.00000E+00
     288   0.00000E+00
     289   0.00000E+00
     290   0.00000E+00
     291   0.00000E+00
     292   0.00000E+00
     293   0.00000E+00
     294   0.00000E+00
     295   0.00000E+00
     296   0.00000E+00
     297   0.00000E+00
     298   0.00000E+00
     299   0.00000E+00
     300   0.00000E+00
  ------------ 
  k    averhoc
           1  0.000000000000000E+000
           2  0.000000000000000E+000
           3  4.681248499970539E-025
           4  3.596758869266076E-024
           5  1.133996885396940E-023
           6  3.015157569150588E-023
           7  7.556250682445747E-023
           8  1.862496889885999E-022
           9  4.523812294268902E-022
          10  1.102560714288301E-021
          11  2.667787069737522E-021
          12  6.490057176320779E-021
          13  1.573403289806506E-020
          14  3.814829282233283E-020
          15  9.280361047174477E-020
          16  2.252057925047071E-019
          17  5.464785615312343E-019
          18  1.329464515787657E-018
          19  3.234947721498665E-018
          20  7.867776486651346E-018
          21  1.913737418503172E-017
          22  4.658544125407669E-017
          23  1.134433302476321E-016
          24  2.764712935137632E-016
          25  6.742331769037053E-016
          26  1.644750162063976E-015
          27  4.011716219537326E-015
          28  9.797392767060658E-015
          29  2.396196785767642E-014
          30  5.854939427645033E-014
          31  1.434354819783998E-013
          32  3.510566564410410E-013
          33  8.609109914724433E-013
          34  2.112820419006071E-012
          35  5.188436034733595E-012
          36  1.275687053760446E-011
          37  3.139072310183221E-011
          38  7.735431591097937E-011
          39  1.908623105070456E-010
          40  4.716123980543719E-010
          41  1.167156865951715E-009
          42  2.891500995587253E-009
          43  7.177249912472155E-009
          44  1.784498586514583E-008
          45  4.442034432720023E-008
          46  1.107758958695034E-007
          47  2.764944382030923E-007
          48  6.913539545729194E-007
          49  1.729766695936441E-006
          50  4.330009240707552E-006
          51  1.083658278114673E-005
          52  2.707852918185928E-005
          53  6.744567273607740E-005
          54  1.670412506100689E-004
          55  4.105395198531961E-004
          56  9.907911732329302E-004
          57  2.052693107962823E-003
          58  3.453800551711996E-003
          59  4.978923522510571E-003
          60  6.389288084761926E-003
          61  7.474295109609454E-003
          62  8.061079855169575E-003
          63  8.061079855169575E-003
          64  7.474295109609454E-003
          65  6.389288084761926E-003
          66  4.978923522510571E-003
          67  3.453800551711996E-003
          68  2.052693107962823E-003
          69  9.907911732329302E-004
          70  4.105395198531961E-004
          71  1.670412506100689E-004
          72  6.744567273607689E-005
          73  2.707852918185928E-005
          74  1.083658278114673E-005
          75  4.330009240707581E-006
          76  1.729766695936430E-006
          77  6.913539545729194E-007
          78  2.764944382030948E-007
          79  1.107758958695025E-007
          80  4.442034432720023E-008
          81  1.784498586514583E-008
          82  7.177249912472190E-009
          83  2.891500995587228E-009
          84  1.167156865951715E-009
          85  4.716123980543719E-010
          86  1.908623105070471E-010
          87  7.735431591097937E-011
          88  3.139072310183221E-011
          89  1.275687053760449E-011
          90  5.188436034733567E-012
          91  2.112820419006071E-012
          92  8.609109914724474E-013
          93  3.510566564410432E-013
          94  1.434354819783993E-013
          95  5.854939427645033E-014
          96  2.396196785767652E-014
          97  9.797392767060579E-015
          98  4.011716219537326E-015
          99  1.644750162063976E-015
         100  6.742331769037053E-016
         101  2.764712935137632E-016
         102  1.134433302476321E-016
         103  4.658544125407669E-017
         104  1.913737418503192E-017
         105  7.867776486651346E-018
         106  3.234947721498665E-018
         107  1.329464515787657E-018
         108  5.464785615312295E-019
         109  2.252057925047071E-019
         110  9.280361047174477E-020
         111  3.814829282233308E-020
         112  1.573403289806497E-020
         113  6.490057176320779E-021
         114  2.667787069737522E-021
         115  1.102560714288291E-021
         116  4.523812294268902E-022
         117  1.862496889885999E-022
         118  7.556250682445791E-023
         119  3.015157569150557E-023
         120  1.133996885396940E-023
         121  3.596758869266076E-024
         122  4.681248499970721E-025
         123  0.000000000000000E+000
  ------------ 
  k    rhog_core(k)
       1   0.55433E-03   0.00000E+00
       2  -0.54714E-03  -0.26573E-19
       3  -0.54714E-03  -0.32590E-19
       4  -0.54714E-03  -0.26384E-19
       5  -0.54714E-03  -0.29170E-19
       6  -0.54714E-03  -0.32803E-19
       7  -0.54714E-03  -0.31965E-19
       8   0.54005E-03   0.55258E-19
       9   0.54005E-03   0.51135E-19
      10   0.54005E-03   0.57824E-19
      11   0.54005E-03   0.57318E-19
      12   0.54005E-03   0.55751E-19
      13   0.54005E-03   0.64347E-19
      14   0.54005E-03   0.51410E-19
      15   0.54005E-03   0.65706E-19
      16   0.54005E-03   0.61343E-19
      17   0.54005E-03   0.65318E-19
      18   0.54005E-03   0.60659E-19
      19   0.54005E-03   0.61239E-19
      20  -0.53304E-03  -0.91946E-19
      21  -0.53304E-03  -0.82382E-19
      22  -0.53304E-03  -0.87421E-19
      23  -0.53304E-03  -0.83553E-19
      24  -0.53304E-03  -0.90295E-19
      25  -0.53304E-03  -0.88340E-19
      26  -0.53304E-03  -0.88400E-19
      27  -0.53304E-03  -0.88353E-19
      28   0.52612E-03   0.47948E-20
      29   0.52612E-03   0.93463E-20
      30   0.52612E-03   0.11074E-19
      31   0.52612E-03   0.48205E-20
      32   0.52612E-03   0.38659E-20
      33   0.52612E-03   0.55368E-20
      34  -0.51928E-03  -0.28073E-19
      35  -0.51928E-03  -0.27544E-19
      36  -0.51928E-03  -0.38983E-19
      37  -0.51928E-03  -0.33436E-19
      38  -0.51928E-03  -0.32128E-19
      39  -0.51928E-03  -0.37533E-19
      40  -0.51928E-03  -0.26899E-19
      41  -0.51928E-03  -0.28897E-19
      42  -0.51928E-03  -0.43748E-19
      43  -0.51928E-03  -0.41960E-19
      44  -0.51928E-03  -0.42017E-19
      45  -0.51928E-03  -0.35197E-19
      46  -0.51928E-03  -0.50962E-19
      47  -0.51928E-03  -0.30919E-19
      48  -0.51928E-03  -0.39424E-19
      49  -0.51928E-03  -0.41426E-19
      50  -0.51928E-03  -0.36242E-19
      51  -0.51928E-03  -0.36327E-19
      52  -0.51928E-03  -0.39015E-19
      53  -0.51928E-03  -0.33701E-19
      54  -0.51928E-03  -0.29694E-19
      55  -0.51928E-03  -0.28086E-19
      56  -0.51928E-03  -0.39525E-19
      57  -0.51928E-03  -0.33997E-19
      58   0.51252E-03   0.38423E-19
      59   0.51252E-03   0.63417E-19
      60   0.51252E-03   0.49762E-19
      61   0.51252E-03   0.63558E-19
      62   0.51252E-03   0.36621E-19
      63   0.51252E-03   0.65419E-19
      64   0.51252E-03   0.47368E-19
      65   0.51252E-03   0.58068E-19
      66   0.51252E-03   0.56082E-19
      67   0.51252E-03   0.49763E-19
      68   0.51252E-03   0.37377E-19
      69   0.51252E-03   0.60594E-19
      70   0.51252E-03   0.40505E-19
      71   0.51252E-03   0.69303E-19
      72   0.51252E-03   0.45686E-19
      73   0.51252E-03   0.60209E-19
      74   0.51252E-03   0.43713E-19
      75   0.51252E-03   0.58232E-19
      76   0.51252E-03   0.63083E-19
      77   0.51252E-03   0.61743E-19
      78   0.51252E-03   0.38031E-19
      79   0.51252E-03   0.66828E-19
      80   0.51252E-03   0.50547E-19
      81   0.51252E-03   0.64343E-19
      82   0.49925E-03   0.94082E-20
      83   0.49925E-03  -0.10410E-20
      84   0.49925E-03   0.15817E-19
      85   0.49925E-03   0.10778E-19
      86   0.49925E-03   0.18646E-20
      87   0.49925E-03   0.16844E-19
      88   0.49925E-03  -0.23339E-20
      89   0.49925E-03   0.14528E-19
      90   0.49925E-03   0.10388E-19
      91   0.49925E-03  -0.51304E-21
      92   0.49925E-03   0.16345E-19
      93   0.49925E-03   0.10705E-19
      94  -0.49274E-03   0.22377E-19
      95  -0.49274E-03  -0.12779E-19
      96  -0.49274E-03  -0.37243E-19
      97  -0.49274E-03  -0.22748E-19
      98  -0.49274E-03  -0.31641E-19
      99  -0.49274E-03  -0.22822E-19
     100  -0.49274E-03  -0.37319E-19
  970015   0.59235E-07  -0.54625E-21
  970016   0.59235E-07  -0.69880E-21
  970017   0.59235E-07  -0.61885E-21
  970018   0.59235E-07  -0.54350E-21
  970019   0.59235E-07  -0.63607E-21
  970020   0.25527E-07   0.97757E-21
  970021   0.55728E-07   0.79576E-21
  970022   0.55728E-07   0.77324E-21
  970023   0.55728E-07   0.54266E-21
  970024   0.55728E-07   0.48095E-21
  970025   0.25527E-07   0.78839E-21
  970026   0.25527E-07   0.58916E-21
  970027   0.55728E-07   0.53700E-21
  970028   0.55728E-07   0.47112E-21
  970029   0.55728E-07   0.81062E-21
  970030   0.55728E-07   0.78668E-21
  970031   0.25527E-07   0.87779E-21
  970032   0.80934E-07   0.34798E-21
  970033   0.80934E-07   0.42132E-21
  970034   0.39640E-07   0.27986E-21
  970035   0.39640E-07   0.20123E-21
  970036   0.39640E-07   0.99634E-22
  970037   0.39640E-07   0.52232E-22
  970038   0.80934E-07   0.25195E-21
  970039   0.80934E-07   0.25163E-21
  970040   0.80934E-07   0.29010E-21
  970041   0.80934E-07   0.28944E-21
  970042   0.39640E-07   0.74935E-22
  970043   0.39640E-07   0.29671E-22
  970044   0.39640E-07   0.25368E-21
  970045   0.39640E-07   0.18517E-21
  970046   0.80934E-07   0.30853E-21
  970047   0.80934E-07   0.38363E-21
  970048   0.74834E-07  -0.94985E-22
  970049   0.74834E-07   0.67807E-21
  970050   0.74834E-07   0.82752E-21
  970051   0.74834E-07   0.53536E-22
  970052   0.12045E-06   0.27839E-21
  970053   0.12045E-06   0.33366E-21
  970054   0.12482E-06   0.77994E-22
  970055   0.12482E-06   0.68034E-22
  970056   0.12482E-06   0.15749E-21
  970057   0.12482E-06   0.18232E-21
  970058   0.12045E-06   0.46402E-21
  970059   0.12045E-06   0.54607E-21
  970060   0.12045E-06   0.49090E-21
  970061   0.12045E-06   0.56884E-21
  970062   0.12482E-06   0.15422E-21
  970063   0.12482E-06   0.17346E-21
  970064   0.12482E-06   0.83728E-22
  970065   0.12482E-06   0.70387E-22
  970066   0.12045E-06   0.36377E-21
  970067   0.12045E-06   0.41647E-21
  970068   0.11384E-06   0.18370E-21
  970069   0.11384E-06   0.24672E-21
  970070   0.11384E-06   0.43936E-21
  970071   0.11384E-06   0.28377E-21
  970072   0.11384E-06   0.47045E-21
  970073   0.11384E-06   0.31696E-21
  970074   0.11384E-06   0.30863E-22
  970075   0.11384E-06   0.92248E-22
  970076   0.10670E-06   0.28775E-21
  970077   0.10670E-06   0.31873E-21
  970078   0.10670E-06   0.14359E-21
  970079   0.10670E-06   0.18462E-21
  970080   0.10670E-06   0.17566E-21
  970081   0.10670E-06   0.21683E-21
  970082   0.10670E-06   0.32380E-21
  970083   0.10670E-06   0.35306E-21
  970084   0.23158E-07  -0.63924E-22
  970085   0.37795E-07  -0.21823E-21
  970086   0.37795E-07  -0.20342E-21
  970087   0.37795E-07  -0.13899E-21
  970088   0.37795E-07  -0.97313E-22
  970089   0.23158E-07  -0.28577E-22
  970090   0.23158E-07   0.53260E-22
  970091   0.37795E-07  -0.12146E-21
  970092   0.37795E-07  -0.89101E-22
  970093   0.37795E-07  -0.16339E-21
  970094   0.37795E-07  -0.15308E-21
  970095   0.23158E-07  -0.12315E-22
  970096  -0.32096E-08  -0.54958E-21
  970097  -0.32096E-08  -0.52394E-21
  970098   0.41135E-08  -0.11092E-21
  970099   0.41135E-08  -0.85256E-22
  970100   0.41135E-08  -0.98526E-22
  970101   0.41135E-08  -0.13562E-21
  970102  -0.32096E-08  -0.43150E-21
  970103  -0.32096E-08  -0.44157E-21
  970104  -0.32096E-08  -0.39999E-21
  970105  -0.32096E-08  -0.40722E-21
  970106   0.41135E-08  -0.78380E-22
  970107   0.41135E-08  -0.10932E-21
  970108   0.41135E-08  -0.15882E-21
  970109   0.41135E-08  -0.13525E-21
  970110  -0.32096E-08  -0.54893E-21
  970111  -0.32096E-08  -0.52375E-21
  970112  -0.11362E-07  -0.21864E-20
  970113  -0.11362E-07  -0.22258E-20
  970114  -0.11362E-07  -0.22288E-20
  970115  -0.11362E-07  -0.21912E-20
  ------------ 

     Initial potential from superposition of free atoms

     starting charge    5.99997, renormalised to    6.00000

     negative rho (up, down):  6.001E-07 5.882E-07
     Starting wfc are    4 randomized atomic wfcs +   21 random wfc

     total cpu time spent up to now is       86.6 secs

     per-process dynamical memory:   945.9 Mb

     Self-consistent Calculation

     iteration #  1     ecut=   150.00 Ry     beta=0.70
     Davidson diagonalization with overlap
     ethr =  1.00E-02,  avg # of iterations =  8.8

     Threshold (ethr) on eigenvalues was too large:
     Diagonalizing with lowered threshold

     Davidson diagonalization with overlap
     ethr =  1.10E-04,  avg # of iterations =  8.5

     negative rho (up, down):  2.767E-07 5.669E-07

     total cpu time spent up to now is      872.3 secs

     total energy              =     -23.24826486 Ry
     Harris-Foulkes estimate   =     -23.22642703 Ry
     estimated scf accuracy    <       0.00662539 Ry

     total magnetization       =     1.43 Bohr mag/cell
     absolute magnetization    =     1.43 Bohr mag/cell

     iteration #  2     ecut=   150.00 Ry     beta=0.70
     Davidson diagonalization with overlap
     ethr =  1.10E-04,  avg # of iterations =  2.1

     total cpu time spent up to now is     1147.5 secs

     total energy              =     -23.24280266 Ry
     Harris-Foulkes estimate   =     -23.26215769 Ry
     estimated scf accuracy    <       0.00370827 Ry

     total magnetization       =     2.00 Bohr mag/cell
     absolute magnetization    =     2.00 Bohr mag/cell

     iteration #  3     ecut=   150.00 Ry     beta=0.70
     Davidson diagonalization with overlap
     ethr =  6.18E-05,  avg # of iterations =  4.2

     total cpu time spent up to now is     1357.0 secs

     total energy              =     -23.27152608 Ry
     Harris-Foulkes estimate   =     -23.24515285 Ry
     estimated scf accuracy    <       0.00690246 Ry

     total magnetization       =     2.00 Bohr mag/cell
     absolute magnetization    =     2.00 Bohr mag/cell

     iteration #  4     ecut=   150.00 Ry     beta=0.70
     Davidson diagonalization with overlap
     ethr =  6.18E-05,  avg # of iterations =  3.5

     total cpu time spent up to now is     1546.4 secs

     total energy              =     -23.27345697 Ry
     Harris-Foulkes estimate   =     -23.27288878 Ry
     estimated scf accuracy    <       0.00076425 Ry

     total magnetization       =     2.00 Bohr mag/cell
     absolute magnetization    =     2.00 Bohr mag/cell

     iteration #  5     ecut=   150.00 Ry     beta=0.70
     Davidson diagonalization with overlap
     ethr =  1.27E-05,  avg # of iterations =  2.2

     total cpu time spent up to now is     1694.9 secs

     total energy              =     -23.27364684 Ry
     Harris-Foulkes estimate   =     -23.27346026 Ry
     estimated scf accuracy    <       0.00060238 Ry

     total magnetization       =     2.00 Bohr mag/cell
     absolute magnetization    =     2.00 Bohr mag/cell

     iteration #  6     ecut=   150.00 Ry     beta=0.70
     Davidson diagonalization with overlap

     Maximum CPU time exceeded

     max_seconds     =    1700.00
     elapsed seconds =    1704.99
     Calculation stopped in k-point loop, point #     1
     Calculation stopped in scf loop at iteration #     5

     Writing output data file S.save
 
     init_run     :     56.44s CPU     85.35s WALL (       1 calls)
     electrons    :   1527.18s CPU   1620.28s WALL (       1 calls)

     Called by init_run:
     wfcinit      :     44.02s CPU     44.80s WALL (       1 calls)
     potinit      :      0.86s CPU      0.98s WALL (       1 calls)

     Called by electrons:
     c_bands      :   1003.88s CPU   1012.66s WALL (       7 calls)
     sum_band     :    144.11s CPU    228.29s WALL (       6 calls)
     v_of_rho     :      2.11s CPU      2.16s WALL (       6 calls)
     mix_rho      :    377.19s CPU    377.98s WALL (       6 calls)

     Called by c_bands:
     init_us_2    :      1.17s CPU      1.19s WALL (     105 calls)
     cegterg      :   1001.84s CPU   1008.63s WALL (      49 calls)

     Called by sum_band:

     Called by *egterg:
     h_psi        :    996.22s CPU    996.60s WALL (     293 calls)
     g_psi        :      2.37s CPU      2.35s WALL (     236 calls)
     cdiaghg      :      0.30s CPU      0.44s WALL (     277 calls)

     Called by h_psi:
     h_psi:pot    :    993.71s CPU    993.83s WALL (     293 calls)
     h_psi:calbec :      2.47s CPU      2.51s WALL (     293 calls)
     vloc_psi     :    989.52s CPU    989.61s WALL (     293 calls)
     add_vuspsi   :      1.72s CPU      1.70s WALL (     293 calls)

     General routines
     calbec       :      2.47s CPU      2.51s WALL (     293 calls)
     fft          :      4.77s CPU      4.87s WALL (      46 calls)
     ffts         :    260.58s CPU    260.64s WALL (    2511 calls)
     fftw         :   1082.04s CPU   1082.03s WALL (   10558 calls)
     davcio       :      0.00s CPU      1.08s WALL (      18 calls)
 
 
     PWSCF        : 26m23.77s CPU    28m27.82s WALL

 
   This run was terminated on:  20:23: 8  26Jul2018            

=------------------------------------------------------------------------------=
   JOB DONE.
=------------------------------------------------------------------------------=
