
     Program PWSCF v.6.0 (svn rev. 13079) starts on 27Jul2018 at 10: 1:51 

     This program is part of the open-source Quantum ESPRESSO suite
     for quantum simulation of materials; please cite
         "P. Giannozzi et al., J. Phys.:Condens. Matter 21 395502 (2009);
          URL http://www.quantum-espresso.org", 
     in publications or presentations arising from this work. More details at
     http://www.quantum-espresso.org/quote

     Serial version
     Waiting for input...
     Reading input from standard input
     Message from routine read_cards :
     DEPRECATED: no units specified in CELL_PARAMETERS card

     Current dimensions of program PWSCF are:
     Max number of different atomic species (ntypx) = 10
     Max number of k-points (npk) =  40000
     Max angular momentum in pseudopotentials (lmaxx) =  3
 
     G-vector sticks info
     --------------------
     sticks:   dense  smooth     PW     G-vecs:    dense   smooth      PW
     Sum       15793   15793   4149              1493013  1493013  200597
 


     bravais-lattice index     =            0
     lattice parameter (alat)  =       4.5000  a.u.
     unit-cell volume          =    3906.9844 (a.u.)^3
     number of atoms/cell      =            1
     number of atomic types    =            1
     number of electrons       =         6.00
     number of Kohn-Sham states=           10
     kinetic-energy cutoff     =     200.0000  Ry
     charge density cutoff     =     800.0000  Ry
     convergence threshold     =      5.0E-06
     mixing beta               =       0.7000
     number of iterations used =            4  local-TF  mixing
     Exchange-correlation      = PZ ( 1  1  0  0 0 0)

     celldm(1)=   4.500000  celldm(2)=   0.000000  celldm(3)=   0.000000
     celldm(4)=   0.000000  celldm(5)=   0.000000  celldm(6)=   0.000000

     crystal axes: (cart. coord. in units of alat)
               a(1) = (   3.500000   0.000000   0.000000 )  
               a(2) = (   0.000000   3.500000   0.000000 )  
               a(3) = (   0.000000   0.000000   3.500000 )  

     reciprocal axes: (cart. coord. in units 2 pi/alat)
               b(1) = (  0.285714  0.000000  0.000000 )  
               b(2) = (  0.000000  0.285714  0.000000 )  
               b(3) = (  0.000000  0.000000  0.285714 )  


     PseudoPot. # 1 for Te read from file:
     ./Te.UPF
     MD5 check sum: 01b66ce9d58173fe938752fedc4d95a0
     Pseudo is Norm-conserving + core correction, Zval =  6.0
     Generated using "atomic" code by A. Dal Corso  v.6.0 svn rev. 13079
     Using radial grid of 1245 points,  2 beta functions with: 
                l(1) =   1
                l(2) =   2

     atomic species   valence    mass     pseudopotential
        Te             6.00    12.00000     Te( 1.00)

     Starting magnetic structure 
     atomic species   magnetization
        Te           0.010

     48 Sym. Ops., with inversion, found



   Cartesian axes

     site n.     atom                  positions (alat units)
         1           Te  tau(   1) = (   1.7500000   1.7500000   1.7500000  )

     number of k points=     4  gaussian smearing, width (Ry)=  0.0030
                       cart. coord. in units 2pi/alat
        k(    1) = (   0.0000000   0.0000000   0.0000000), wk =   0.1250000
        k(    2) = (   0.0000000   0.0000000  -0.1428571), wk =   0.3750000
        k(    3) = (   0.0000000  -0.1428571  -0.1428571), wk =   0.3750000
        k(    4) = (  -0.1428571  -0.1428571  -0.1428571), wk =   0.1250000

     Dense  grid:  1493013 G-vectors     FFT dimensions: ( 141, 141, 141)

     Estimated max dynamical RAM per process >    1904.10Mb
     Generating pointlists ...
     new r_m :   0.4125 (alat units)  1.8563 (a.u.) for type    1
dfftp%nnr =2803221
    141    141    141    141    141    141
SIZE(dfftp%isind) =   19881
bg(1:3,1):   0.2857  0.0000  0.0000
bg(1:3,2):   0.0000  0.2857  0.0000
bg(1:3,3):   0.0000  0.0000  0.2857
at(1:3,1):   3.5000  0.0000  0.0000
at(1:3,2):   0.0000  3.5000  0.0000
at(1:3,3):   0.0000  0.0000  3.5000
nt =     1 na =    1
tau(:,na) =    1.75000   1.75000   1.75000
  k    rho_core(k)
       1   0.00000E+00
       2   0.00000E+00
       3   0.00000E+00
       4   0.00000E+00
       5   0.00000E+00
       6   0.00000E+00
       7   0.00000E+00
       8   0.00000E+00
       9   0.00000E+00
      10   0.00000E+00
      11   0.00000E+00
      12   0.00000E+00
      13   0.00000E+00
      14   0.00000E+00
      15   0.00000E+00
      16   0.00000E+00
      17   0.00000E+00
      18   0.00000E+00
      19   0.00000E+00
      20   0.00000E+00
      21   0.00000E+00
      22   0.00000E+00
      23   0.00000E+00
      24   0.00000E+00
      25   0.00000E+00
      26   0.00000E+00
      27   0.00000E+00
      28   0.00000E+00
      29   0.00000E+00
      30   0.00000E+00
      31   0.00000E+00
      32   0.00000E+00
      33   0.00000E+00
      34   0.00000E+00
      35   0.00000E+00
      36   0.00000E+00
      37   0.00000E+00
      38   0.00000E+00
      39   0.00000E+00
      40   0.00000E+00
      41   0.00000E+00
      42   0.00000E+00
      43   0.00000E+00
      44   0.00000E+00
      45   0.00000E+00
      46   0.00000E+00
      47   0.00000E+00
      48   0.00000E+00
      49   0.00000E+00
      50   0.00000E+00
      51   0.00000E+00
      52   0.00000E+00
      53   0.00000E+00
      54   0.00000E+00
      55   0.00000E+00
      56   0.00000E+00
      57   0.00000E+00
      58   0.00000E+00
      59   0.00000E+00
      60   0.00000E+00
      61   0.00000E+00
      62   0.00000E+00
      63   0.00000E+00
      64   0.00000E+00
      65   0.00000E+00
      66   0.00000E+00
      67   0.00000E+00
      68   0.00000E+00
      69   0.00000E+00
      70   0.00000E+00
      71   0.00000E+00
      72   0.00000E+00
      73   0.00000E+00
      74   0.00000E+00
      75   0.00000E+00
      76   0.00000E+00
      77   0.00000E+00
      78   0.00000E+00
      79   0.00000E+00
      80   0.00000E+00
      81   0.00000E+00
      82   0.00000E+00
      83   0.00000E+00
      84   0.00000E+00
      85   0.00000E+00
      86   0.00000E+00
      87   0.00000E+00
      88   0.00000E+00
      89   0.00000E+00
      90   0.00000E+00
      91   0.00000E+00
      92   0.00000E+00
      93   0.00000E+00
      94   0.00000E+00
      95   0.00000E+00
      96   0.00000E+00
      97   0.00000E+00
      98   0.00000E+00
      99   0.00000E+00
     100   0.00000E+00
     101   0.00000E+00
     102   0.00000E+00
     103   0.00000E+00
     104   0.00000E+00
     105   0.00000E+00
     106   0.00000E+00
     107   0.00000E+00
     108   0.00000E+00
     109   0.00000E+00
     110   0.00000E+00
     111   0.00000E+00
     112   0.00000E+00
     113   0.00000E+00
     114   0.00000E+00
     115   0.00000E+00
     116   0.00000E+00
     117   0.00000E+00
     118   0.00000E+00
     119   0.00000E+00
     120   0.00000E+00
     121   0.00000E+00
     122   0.00000E+00
     123   0.00000E+00
     124   0.00000E+00
     125   0.00000E+00
     126   0.00000E+00
     127   0.00000E+00
     128   0.00000E+00
     129   0.00000E+00
     130   0.00000E+00
     131   0.00000E+00
     132   0.00000E+00
     133   0.00000E+00
     134   0.00000E+00
     135   0.00000E+00
     136   0.00000E+00
     137   0.00000E+00
     138   0.00000E+00
     139   0.00000E+00
     140   0.00000E+00
     141   0.00000E+00
     142   0.00000E+00
     143   0.00000E+00
     144   0.00000E+00
     145   0.00000E+00
     146   0.00000E+00
     147   0.00000E+00
     148   0.00000E+00
     149   0.00000E+00
     150   0.00000E+00
     151   0.00000E+00
     152   0.00000E+00
     153   0.00000E+00
     154   0.00000E+00
     155   0.00000E+00
     156   0.00000E+00
     157   0.00000E+00
     158   0.00000E+00
     159   0.00000E+00
     160   0.00000E+00
     161   0.00000E+00
     162   0.00000E+00
     163   0.00000E+00
     164   0.00000E+00
     165   0.00000E+00
     166   0.00000E+00
     167   0.00000E+00
     168   0.00000E+00
     169   0.00000E+00
     170   0.00000E+00
     171   0.00000E+00
     172   0.00000E+00
     173   0.00000E+00
     174   0.00000E+00
     175   0.00000E+00
     176   0.00000E+00
     177   0.00000E+00
     178   0.00000E+00
     179   0.00000E+00
     180   0.00000E+00
     181   0.00000E+00
     182   0.00000E+00
     183   0.00000E+00
     184   0.00000E+00
     185   0.00000E+00
     186   0.00000E+00
     187   0.00000E+00
     188   0.00000E+00
     189   0.00000E+00
     190   0.00000E+00
     191   0.00000E+00
     192   0.00000E+00
     193   0.00000E+00
     194   0.00000E+00
     195   0.00000E+00
     196   0.00000E+00
     197   0.00000E+00
     198   0.00000E+00
     199   0.00000E+00
     200   0.00000E+00
     201   0.00000E+00
     202   0.00000E+00
     203   0.00000E+00
     204   0.00000E+00
     205   0.00000E+00
     206   0.00000E+00
     207   0.00000E+00
     208   0.00000E+00
     209   0.00000E+00
     210   0.00000E+00
     211   0.00000E+00
     212   0.00000E+00
     213   0.00000E+00
     214   0.00000E+00
     215   0.00000E+00
     216   0.00000E+00
     217   0.00000E+00
     218   0.00000E+00
     219   0.00000E+00
     220   0.00000E+00
     221   0.00000E+00
     222   0.00000E+00
     223   0.00000E+00
     224   0.00000E+00
     225   0.00000E+00
     226   0.00000E+00
     227   0.00000E+00
     228   0.00000E+00
     229   0.00000E+00
     230   0.00000E+00
     231   0.00000E+00
     232   0.00000E+00
     233   0.00000E+00
     234   0.00000E+00
     235   0.00000E+00
     236   0.00000E+00
     237   0.00000E+00
     238   0.00000E+00
     239   0.00000E+00
     240   0.00000E+00
     241   0.00000E+00
     242   0.00000E+00
     243   0.00000E+00
     244   0.00000E+00
     245   0.00000E+00
     246   0.00000E+00
     247   0.00000E+00
     248   0.00000E+00
     249   0.00000E+00
     250   0.00000E+00
     251   0.00000E+00
     252   0.00000E+00
     253   0.00000E+00
     254   0.00000E+00
     255   0.00000E+00
     256   0.00000E+00
     257   0.00000E+00
     258   0.00000E+00
     259   0.00000E+00
     260   0.00000E+00
     261   0.00000E+00
     262   0.00000E+00
     263   0.00000E+00
     264   0.00000E+00
     265   0.00000E+00
     266   0.00000E+00
     267   0.00000E+00
     268   0.00000E+00
     269   0.00000E+00
     270   0.00000E+00
     271   0.00000E+00
     272   0.00000E+00
     273   0.00000E+00
     274   0.00000E+00
     275   0.00000E+00
     276   0.00000E+00
     277   0.00000E+00
     278   0.00000E+00
     279   0.00000E+00
     280   0.00000E+00
     281   0.00000E+00
     282   0.00000E+00
     283   0.00000E+00
     284   0.00000E+00
     285   0.00000E+00
     286   0.00000E+00
     287   0.00000E+00
     288   0.00000E+00
     289   0.00000E+00
     290   0.00000E+00
     291   0.00000E+00
     292   0.00000E+00
     293   0.00000E+00
     294   0.00000E+00
     295   0.00000E+00
     296   0.00000E+00
     297   0.00000E+00
     298   0.00000E+00
     299   0.00000E+00
     300   0.00000E+00
  ------------ 
  k    averhoc
           1  1.210715808722253E-013
           2  1.311496724415387E-013
           3  1.630914433423773E-013
           4  2.223562449534661E-013
           5  3.189486804847626E-013
           6  4.690510388354805E-013
           7  6.976922700810456E-013
           8  1.043210714966199E-012
           9  1.564794629639205E-012
          10  2.350458501444267E-012
          11  3.530546471322847E-012
          12  5.307602512951742E-012
          13  7.984843097056682E-012
          14  1.200676697310333E-011
          15  1.807113494729162E-011
          16  2.720174130595326E-011
          17  4.094573509833144E-011
          18  6.167982484797201E-011
          19  9.289592126283744E-011
          20  1.399998957648577E-010
          21  2.110276099887471E-010
          22  3.181592122889313E-010
          23  4.800018809891570E-010
          24  7.241214382138229E-010
          25  1.092864546223189E-009
          26  1.650393630889457E-009
          27  2.492697429811147E-009
          28  3.766376586903723E-009
          29  5.692953072109113E-009
          30  8.608999659749942E-009
          31  1.302409651733873E-008
          32  1.971435906496853E-008
          33  2.985336072306570E-008
          34  4.522837944861993E-008
          35  6.856486013764520E-008
          36  1.039865666306222E-007
          37  1.578048633283692E-007
          38  2.396161966040590E-007
          39  3.640650449148877E-007
          40  5.534865750610730E-007
          41  8.422375557123125E-007
          42  1.282423294668855E-006
          43  1.954066512408170E-006
          44  2.980850434912374E-006
          45  4.550569563790069E-006
          46  6.955323228984443E-006
          47  1.064255872731661E-005
          48  1.630406737801379E-005
          49  2.500771117768382E-005
          50  3.842083822422728E-005
          51  5.912897036481524E-005
          52  9.115863834822406E-005
          53  1.408215673204418E-004
          54  2.180090525371548E-004
          55  3.383295053390704E-004
          56  5.263741204822567E-004
          57  8.208966614149054E-004
          58  1.283254585064272E-003
          59  2.008421655551659E-003
          60  3.138731606814220E-003
          61  4.849975305034263E-003
          62  7.314674989333143E-003
          63  1.065391799509413E-002
          64  1.489136163001602E-002
          65  1.992094946773131E-002
          66  2.549469932427463E-002
          67  3.123602605950689E-002
          68  3.667853522413311E-002
          69  4.132613603429246E-002
          70  4.472168421127720E-002
          71  4.651387568215536E-002
          72  4.651387568215536E-002
          73  4.472168421127720E-002
          74  4.132613603429246E-002
          75  3.667853522413311E-002
          76  3.123602605950689E-002
          77  2.549469932427463E-002
          78  1.992094946773131E-002
          79  1.489136163001602E-002
          80  1.065391799509413E-002
          81  7.314674989333143E-003
          82  4.849975305034285E-003
          83  3.138731606814220E-003
          84  2.008421655551659E-003
          85  1.283254585064265E-003
          86  8.208966614149011E-004
          87  5.263741204822587E-004
          88  3.383295053390704E-004
          89  2.180090525371548E-004
          90  1.408215673204413E-004
          91  9.115863834822442E-005
          92  5.912897036481543E-005
          93  3.842083822422728E-005
          94  2.500771117768382E-005
          95  1.630406737801375E-005
          96  1.064255872731664E-005
          97  6.955323228984470E-006
          98  4.550569563790069E-006
          99  2.980850434912374E-006
         100  1.954066512408164E-006
         101  1.282423294668860E-006
         102  8.422375557123131E-007
         103  5.534865750610730E-007
         104  3.640650449148867E-007
         105  2.396161966040577E-007
         106  1.578048633283698E-007
         107  1.039865666306225E-007
         108  6.856486013764520E-008
         109  4.522837944861986E-008
         110  2.985336072306554E-008
         111  1.971435906496866E-008
         112  1.302409651733873E-008
         113  8.608999659749942E-009
         114  5.692953072109113E-009
         115  3.766376586903711E-009
         116  2.492697429811147E-009
         117  1.650393630889457E-009
         118  1.092864546223189E-009
         119  7.241214382138229E-010
         120  4.800018809891558E-010
         121  3.181592122889313E-010
         122  2.110276099887471E-010
         123  1.399998957648577E-010
         124  9.289592126283744E-011
         125  6.167982484797224E-011
         126  4.094573509833144E-011
         127  2.720174130595326E-011
         128  1.807113494729162E-011
         129  1.200676697310328E-011
         130  7.984843097056706E-012
         131  5.307602512951742E-012
         132  3.530546471322847E-012
         133  2.350458501444267E-012
         134  1.564794629639200E-012
         135  1.043210714966203E-012
         136  6.976922700810456E-013
         137  4.690510388354805E-013
         138  3.189486804847626E-013
         139  2.223562449534649E-013
         140  1.630914433423774E-013
         141  1.311496724415387E-013
  ------------ 
  k    rhog_core(k)
       1   0.41466E-02   0.00000E+00
       2  -0.40431E-02   0.48989E-20
       3  -0.40431E-02   0.23027E-20
       4  -0.40431E-02   0.45559E-19
       5  -0.40431E-02  -0.10767E-18
       6  -0.40431E-02  -0.92467E-19
       7  -0.40431E-02  -0.91954E-19
       8   0.39424E-02   0.81353E-20
       9   0.39424E-02   0.33700E-19
      10   0.39424E-02   0.92267E-19
      11   0.39424E-02   0.86330E-19
      12   0.39424E-02   0.46179E-19
      13   0.39424E-02   0.74216E-19
      14   0.39424E-02   0.71374E-19
      15   0.39424E-02   0.17593E-18
      16   0.39424E-02   0.88916E-19
      17   0.39424E-02   0.66597E-19
      18   0.39424E-02   0.19134E-18
      19   0.39424E-02   0.18016E-18
      20  -0.38444E-02   0.53081E-19
      21  -0.38444E-02  -0.62986E-19
      22  -0.38444E-02  -0.66567E-19
      23  -0.38444E-02  -0.17145E-18
      24  -0.38444E-02   0.52165E-20
      25  -0.38444E-02  -0.17991E-18
      26  -0.38444E-02  -0.23181E-18
      27  -0.38444E-02  -0.26743E-18
      28   0.37492E-02   0.19406E-18
      29   0.37492E-02   0.18785E-18
      30   0.37492E-02   0.13550E-18
      31   0.37492E-02  -0.57043E-19
      32   0.37492E-02  -0.62399E-19
      33   0.37492E-02  -0.63397E-19
      34  -0.36565E-02  -0.15257E-18
      35  -0.36565E-02  -0.17220E-18
      36  -0.36565E-02  -0.26552E-18
      37  -0.36565E-02  -0.27748E-18
      38  -0.36565E-02  -0.14761E-18
      39  -0.36565E-02  -0.27452E-18
      40  -0.36565E-02   0.98213E-19
      41  -0.36565E-02   0.72996E-19
      42  -0.36565E-02  -0.16781E-18
      43  -0.36565E-02  -0.28589E-18
      44  -0.36565E-02  -0.14683E-18
      45  -0.36565E-02   0.25321E-19
      46  -0.36565E-02  -0.24131E-18
      47  -0.36565E-02  -0.30585E-19
      48  -0.36565E-02  -0.14418E-21
      49  -0.36565E-02  -0.17446E-19
      50  -0.36565E-02  -0.26937E-18
      51  -0.36565E-02  -0.38832E-18
      52  -0.36565E-02  -0.65844E-20
      53  -0.36565E-02  -0.27560E-19
      54  -0.36565E-02   0.52048E-19
      55  -0.36565E-02   0.13709E-18
      56  -0.36565E-02  -0.50849E-19
      57  -0.36565E-02  -0.24924E-19
      58   0.35664E-02   0.14476E-18
      59   0.35664E-02   0.23581E-18
      60   0.35664E-02   0.19617E-18
      61   0.35664E-02   0.35018E-18
      62   0.35664E-02   0.15375E-18
      63   0.35664E-02   0.22974E-18
      64   0.35664E-02   0.13038E-18
      65   0.35664E-02  -0.57187E-19
      66   0.35664E-02   0.23778E-18
      67   0.35664E-02   0.28978E-19
      68   0.35664E-02  -0.14686E-18
      69   0.35664E-02   0.51142E-19
      70   0.35664E-02   0.31900E-18
      71   0.35664E-02   0.35642E-18
      72   0.35664E-02   0.23258E-18
      73   0.35664E-02   0.71320E-19
      74   0.35664E-02   0.18626E-18
      75   0.35664E-02   0.14669E-18
      76   0.35664E-02  -0.37724E-19
      77   0.35664E-02   0.12034E-18
      78   0.35664E-02  -0.59476E-19
      79   0.35664E-02   0.59966E-19
      80   0.35664E-02   0.36957E-19
      81   0.35664E-02   0.13423E-18
      82   0.33932E-02   0.30122E-18
      83   0.33932E-02   0.42107E-18
      84   0.33932E-02   0.78843E-19
      85   0.33932E-02   0.13820E-18
      86   0.33932E-02   0.41350E-18
      87   0.33932E-02   0.99633E-19
      88   0.33932E-02   0.25284E-18
      89   0.33932E-02  -0.16058E-18
      90   0.33932E-02   0.10137E-18
      91   0.33932E-02   0.44809E-19
      92   0.33932E-02  -0.98476E-19
      93   0.33932E-02  -0.10249E-18
      94  -0.33101E-02   0.30608E-19
      95  -0.33101E-02  -0.35326E-18
      96  -0.33101E-02  -0.36513E-18
      97  -0.33101E-02  -0.24238E-18
      98  -0.33101E-02  -0.64649E-19
      99  -0.33101E-02  -0.29062E-18
     100  -0.33101E-02  -0.20734E-18
 1492913   0.20762E-09   0.50307E-20
 1492914   0.20762E-09   0.13308E-19
 1492915   0.20762E-09   0.65657E-20
 1492916   0.20762E-09   0.78994E-21
 1492917   0.20762E-09   0.70242E-21
 1492918  -0.12583E-08   0.75583E-20
 1492919  -0.12583E-08   0.83598E-20
 1492920  -0.12583E-08   0.68419E-20
 1492921  -0.12583E-08  -0.22682E-20
 1492922  -0.12583E-08   0.74430E-20
 1492923  -0.12583E-08  -0.16913E-20
 1492924  -0.12583E-08   0.17733E-20
 1492925  -0.12583E-08   0.25791E-20
 1492926   0.10480E-09  -0.22645E-20
 1492927   0.10480E-09  -0.11367E-20
 1492928   0.10480E-09  -0.47421E-20
 1492929   0.10480E-09  -0.52084E-20
 1492930   0.10480E-09  -0.60655E-20
 1492931   0.10480E-09  -0.65261E-20
 1492932   0.10480E-09  -0.45297E-20
 1492933   0.10480E-09  -0.34131E-20
 1492934  -0.22750E-08   0.10464E-21
 1492935  -0.22750E-08   0.50019E-20
 1492936  -0.22750E-08  -0.75677E-21
 1492937  -0.22750E-08  -0.16452E-20
 1492938  -0.22750E-08   0.18936E-20
 1492939  -0.22750E-08   0.11518E-20
 1492940  -0.22750E-08  -0.34393E-20
 1492941  -0.22750E-08   0.16280E-20
 1492942  -0.22750E-08  -0.46624E-20
 1492943  -0.22750E-08  -0.13937E-21
 1492944  -0.12583E-08  -0.55413E-20
 1492945  -0.12583E-08  -0.49049E-20
 1492946   0.20762E-09  -0.66546E-20
 1492947   0.20762E-09  -0.64153E-20
 1492948   0.20762E-09   0.19649E-20
 1492949   0.20762E-09   0.40344E-20
 1492950  -0.12583E-08  -0.13066E-20
 1492951  -0.12583E-08   0.13641E-20
 1492952  -0.22750E-08  -0.70187E-20
 1492953  -0.22750E-08  -0.74773E-20
 1492954  -0.22750E-08  -0.56156E-20
 1492955  -0.22750E-08  -0.60162E-20
 1492956  -0.12583E-08  -0.70230E-21
 1492957  -0.12583E-08   0.19488E-20
 1492958   0.20762E-09   0.37230E-21
 1492959   0.20762E-09   0.23825E-20
 1492960   0.20762E-09  -0.21730E-20
 1492961   0.20762E-09  -0.19818E-20
 1492962  -0.12583E-08  -0.13929E-20
 1492963  -0.12583E-08  -0.77577E-21
 1492964  -0.22750E-08  -0.66492E-20
 1492965  -0.22750E-08  -0.20753E-20
 1492966  -0.22449E-08   0.12486E-20
 1492967  -0.22449E-08   0.96526E-21
 1492968  -0.22449E-08   0.21449E-20
 1492969  -0.22449E-08  -0.94895E-22
 1492970  -0.22449E-08   0.46317E-21
 1492971  -0.22449E-08  -0.17572E-20
 1492972  -0.22449E-08  -0.81332E-21
 1492973  -0.22449E-08  -0.10736E-20
 1492974   0.12250E-09  -0.31995E-20
 1492975   0.12250E-09  -0.35354E-20
 1492976  -0.49969E-09  -0.13238E-22
 1492977  -0.49969E-09   0.15268E-20
 1492978  -0.49969E-09  -0.82073E-21
 1492979  -0.49969E-09  -0.42207E-21
 1492980   0.12250E-09   0.13642E-20
 1492981   0.12250E-09   0.27139E-20
 1492982   0.12250E-09  -0.15704E-20
 1492983   0.12250E-09  -0.31433E-21
 1492984  -0.49969E-09   0.39742E-21
 1492985  -0.49969E-09   0.83095E-21
 1492986  -0.49969E-09  -0.10329E-21
 1492987  -0.49969E-09   0.14719E-20
 1492988   0.12250E-09  -0.25940E-22
 1492989   0.12250E-09  -0.45762E-21
 1492990  -0.19929E-08  -0.36512E-21
 1492991  -0.19929E-08  -0.93309E-21
 1492992  -0.19929E-08   0.18757E-20
 1492993  -0.19929E-08   0.41120E-20
 1492994  -0.19929E-08   0.17064E-20
 1492995  -0.19929E-08   0.38934E-20
 1492996  -0.19929E-08   0.20288E-20
 1492997  -0.19929E-08   0.14150E-20
 1492998  -0.15937E-09  -0.44427E-21
 1492999  -0.15937E-09  -0.40585E-21
 1493000  -0.16624E-08  -0.32524E-21
 1493001  -0.16624E-08  -0.28082E-21
 1493002  -0.16624E-08   0.27819E-22
 1493003  -0.16624E-08   0.22114E-21
 1493004  -0.15937E-09   0.14231E-20
 1493005  -0.15937E-09   0.18577E-20
 1493006  -0.15937E-09   0.13525E-20
 1493007  -0.15937E-09   0.17364E-20
 1493008  -0.16624E-08   0.19934E-21
 1493009  -0.16624E-08   0.36378E-21
 1493010  -0.16624E-08  -0.10415E-21
 1493011  -0.16624E-08  -0.88521E-22
 1493012  -0.15937E-09  -0.88826E-21
 1493013  -0.15937E-09  -0.90278E-21
  ------------ 

     Initial potential from superposition of free atoms

     starting charge    5.99982, renormalised to    6.00000

     negative rho (up, down):  1.075E-05 1.054E-05
     Starting wfc are    4 randomized atomic wfcs +    6 random wfc

     total cpu time spent up to now is       98.5 secs

     per-process dynamical memory:  1005.8 Mb

     Self-consistent Calculation

     iteration #  1     ecut=   200.00 Ry     beta=0.70
     Davidson diagonalization with overlap
     ethr =  1.00E-02,  avg # of iterations =  9.8

     Threshold (ethr) on eigenvalues was too large:
     Diagonalizing with lowered threshold

     Davidson diagonalization with overlap
     ethr =  2.61E-05,  avg # of iterations = 15.9

     negative rho (up, down):  1.873E-05 2.858E-05

     total cpu time spent up to now is      683.2 secs

     total energy              =     -47.14519141 Ry
     Harris-Foulkes estimate   =     -47.13848971 Ry
     estimated scf accuracy    <       0.00151427 Ry

     total magnetization       =     0.99 Bohr mag/cell
     absolute magnetization    =     0.99 Bohr mag/cell

     iteration #  2     ecut=   200.00 Ry     beta=0.70
     Davidson diagonalization with overlap
     ethr =  2.52E-05,  avg # of iterations =  2.1

     negative rho (up, down):  8.196E-05 7.800E-05

     total cpu time spent up to now is      873.5 secs

     total energy              =     -47.09801976 Ry
     Harris-Foulkes estimate   =     -47.15572998 Ry
     estimated scf accuracy    <       0.00279825 Ry

     total magnetization       =     2.00 Bohr mag/cell
     absolute magnetization    =     2.00 Bohr mag/cell

     iteration #  3     ecut=   200.00 Ry     beta=0.70
     Davidson diagonalization with overlap
     ethr =  2.52E-05,  avg # of iterations =  3.5

     negative rho (up, down):  3.124E-05 3.174E-05

     total cpu time spent up to now is     1102.6 secs

     total energy              =     -47.13125951 Ry
     Harris-Foulkes estimate   =     -47.15949435 Ry
     estimated scf accuracy    <       0.00213205 Ry

     total magnetization       =    -2.00 Bohr mag/cell
     absolute magnetization    =     2.00 Bohr mag/cell

     iteration #  4     ecut=   200.00 Ry     beta=0.70
     Davidson diagonalization with overlap
     ethr =  2.52E-05,  avg # of iterations =  2.5

     negative rho (up, down):  5.357E-05 4.684E-05

     total cpu time spent up to now is     1294.1 secs

     total energy              =     -47.11877690 Ry
     Harris-Foulkes estimate   =     -47.13975467 Ry
     estimated scf accuracy    <       0.00404184 Ry

     total magnetization       =     1.68 Bohr mag/cell
     absolute magnetization    =     1.68 Bohr mag/cell

     iteration #  5     ecut=   200.00 Ry     beta=0.70
     Davidson diagonalization with overlap
     ethr =  2.52E-05,  avg # of iterations =  1.6

     negative rho (up, down):  1.378E-05 1.433E-05

     total cpu time spent up to now is     1476.5 secs

     total energy              =     -47.10831051 Ry
     Harris-Foulkes estimate   =     -47.15137196 Ry
     estimated scf accuracy    <       0.00360430 Ry

     total magnetization       =    -2.00 Bohr mag/cell
     absolute magnetization    =     2.00 Bohr mag/cell

     iteration #  6     ecut=   200.00 Ry     beta=0.70
     Davidson diagonalization with overlap
     ethr =  2.52E-05,  avg # of iterations =  2.8

     negative rho (up, down):  8.241E-06 7.915E-06

     total cpu time spent up to now is     1692.3 secs

     total energy              =     -47.13662225 Ry
     Harris-Foulkes estimate   =     -47.15497022 Ry
     estimated scf accuracy    <       0.00294150 Ry

     total magnetization       =     2.00 Bohr mag/cell
     absolute magnetization    =     2.00 Bohr mag/cell

     iteration #  7     ecut=   200.00 Ry     beta=0.70
     Davidson diagonalization with overlap

     Maximum CPU time exceeded

     max_seconds     =    1700.00
     elapsed seconds =    1708.73
     Calculation stopped in k-point loop, point #     2
     Calculation stopped in scf loop at iteration #     6

     Writing output data file Te.save
 
     init_run     :     52.56s CPU     97.19s WALL (       1 calls)
     electrons    :   1458.10s CPU   1612.58s WALL (       1 calls)

     Called by init_run:
     wfcinit      :     30.72s CPU     31.32s WALL (       1 calls)
     potinit      :      1.46s CPU      1.67s WALL (       1 calls)

     Called by electrons:
     c_bands      :    824.69s CPU    833.79s WALL (       8 calls)
     sum_band     :    132.67s CPU    274.13s WALL (       7 calls)
     v_of_rho     :      3.91s CPU      4.22s WALL (       7 calls)
     mix_rho      :    497.09s CPU    501.06s WALL (       7 calls)

     Called by c_bands:
     init_us_2    :      2.96s CPU      3.25s WALL (     122 calls)
     cegterg      :    820.14s CPU    827.66s WALL (      58 calls)

     Called by sum_band:

     Called by *egterg:
     h_psi        :    826.46s CPU    826.62s WALL (     375 calls)
     g_psi        :      1.77s CPU      1.74s WALL (     309 calls)
     cdiaghg      :      0.07s CPU      0.25s WALL (     359 calls)

     Called by h_psi:
     h_psi:pot    :    824.72s CPU    824.76s WALL (     375 calls)
     h_psi:calbec :      2.03s CPU      2.08s WALL (     375 calls)
     vloc_psi     :    820.80s CPU    820.85s WALL (     375 calls)
     add_vuspsi   :      1.89s CPU      1.83s WALL (     375 calls)

     General routines
     calbec       :      2.03s CPU      2.08s WALL (     375 calls)
     fft          :      9.51s CPU      9.61s WALL (      53 calls)
     ffts         :    348.34s CPU    348.24s WALL (    1936 calls)
     fftw         :    892.88s CPU    893.03s WALL (    4978 calls)
     davcio       :      0.01s CPU      1.09s WALL (      18 calls)
 
 
     PWSCF        : 25m10.82s CPU    28m31.74s WALL

 
   This run was terminated on:  10:30:22  27Jul2018            

=------------------------------------------------------------------------------=
   JOB DONE.
=------------------------------------------------------------------------------=
