
     Program PWSCF v.6.0 (svn rev. 13079) starts on 26Jul2018 at 20:35:51 

     This program is part of the open-source Quantum ESPRESSO suite
     for quantum simulation of materials; please cite
         "P. Giannozzi et al., J. Phys.:Condens. Matter 21 395502 (2009);
          URL http://www.quantum-espresso.org", 
     in publications or presentations arising from this work. More details at
     http://www.quantum-espresso.org/quote

     Serial version
     Waiting for input...
     Reading input from standard input
     Message from routine read_cards :
     DEPRECATED: no units specified in CELL_PARAMETERS card

     Current dimensions of program PWSCF are:
     Max number of different atomic species (ntypx) = 10
     Max number of k-points (npk) =  40000
     Max angular momentum in pseudopotentials (lmaxx) =  3
     Message from routine setup:
     the system is metallic, specify occupations
 
     G-vector sticks info
     --------------------
     sticks:   dense  smooth     PW     G-vecs:    dense   smooth      PW
     Sum       15793   15793   4149              1493013  1493013  200597
 


     bravais-lattice index     =            0
     lattice parameter (alat)  =       4.5000  a.u.
     unit-cell volume          =    3906.9844 (a.u.)^3
     number of atoms/cell      =            1
     number of atomic types    =            1
     number of electrons       =         9.00 (up:   6.00, down:   3.00)
     number of Kohn-Sham states=           25
     kinetic-energy cutoff     =     200.0000  Ry
     charge density cutoff     =     800.0000  Ry
     convergence threshold     =      5.0E-06
     mixing beta               =       0.7000
     number of iterations used =            4  local-TF  mixing
     Exchange-correlation      = PZ ( 1  1  0  0 0 0)

     celldm(1)=   4.500000  celldm(2)=   0.000000  celldm(3)=   0.000000
     celldm(4)=   0.000000  celldm(5)=   0.000000  celldm(6)=   0.000000

     crystal axes: (cart. coord. in units of alat)
               a(1) = (   3.500000   0.000000   0.000000 )  
               a(2) = (   0.000000   3.500000   0.000000 )  
               a(3) = (   0.000000   0.000000   3.500000 )  

     reciprocal axes: (cart. coord. in units 2 pi/alat)
               b(1) = (  0.285714  0.000000  0.000000 )  
               b(2) = (  0.000000  0.285714  0.000000 )  
               b(3) = (  0.000000  0.000000  0.285714 )  


     PseudoPot. # 1 for Co read from file:
     ./Co.UPF
     MD5 check sum: c018789e024a4c628e96965b6ac51e75
     Pseudo is Norm-conserving + core correction, Zval =  9.0
     Generated using "atomic" code by A. Dal Corso  v.6.0 svn rev. 13079
     Using radial grid of 1193 points,  2 beta functions with: 
                l(1) =   1
                l(2) =   2

     atomic species   valence    mass     pseudopotential
        Co             9.00    12.00000     Co( 1.00)

     Starting magnetic structure 
     atomic species   magnetization
        Co           0.000

     48 Sym. Ops., with inversion, found



   Cartesian axes

     site n.     atom                  positions (alat units)
         1           Co  tau(   1) = (   1.7500000   1.7500000   1.7500000  )

     number of k points=     4
                       cart. coord. in units 2pi/alat
        k(    1) = (   0.0000000   0.0000000   0.0000000), wk =   0.1250000
        k(    2) = (   0.0000000   0.0000000  -0.1428571), wk =   0.3750000
        k(    3) = (   0.0000000  -0.1428571  -0.1428571), wk =   0.3750000
        k(    4) = (  -0.1428571  -0.1428571  -0.1428571), wk =   0.1250000

     Dense  grid:  1493013 G-vectors     FFT dimensions: ( 141, 141, 141)

     Estimated max dynamical RAM per process >    2288.50Mb
     Generating pointlists ...
     new r_m :   0.4125 (alat units)  1.8563 (a.u.) for type    1
dfftp%nnr =2803221
    141    141    141    141    141    141
SIZE(dfftp%isind) =   19881
bg(1:3,1):   0.2857  0.0000  0.0000
bg(1:3,2):   0.0000  0.2857  0.0000
bg(1:3,3):   0.0000  0.0000  0.2857
at(1:3,1):   3.5000  0.0000  0.0000
at(1:3,2):   0.0000  3.5000  0.0000
at(1:3,3):   0.0000  0.0000  3.5000
nt =     1 na =    1
tau(:,na) =    1.75000   1.75000   1.75000
  k    rho_core(k)
       1   0.00000E+00
       2   0.00000E+00
       3   0.00000E+00
       4   0.00000E+00
       5   0.00000E+00
       6   0.00000E+00
       7   0.00000E+00
       8   0.00000E+00
       9   0.00000E+00
      10   0.00000E+00
      11   0.00000E+00
      12   0.00000E+00
      13   0.00000E+00
      14   0.00000E+00
      15   0.00000E+00
      16   0.00000E+00
      17   0.00000E+00
      18   0.00000E+00
      19   0.00000E+00
      20   0.00000E+00
      21   0.00000E+00
      22   0.00000E+00
      23   0.00000E+00
      24   0.00000E+00
      25   0.00000E+00
      26   0.00000E+00
      27   0.00000E+00
      28   0.00000E+00
      29   0.00000E+00
      30   0.00000E+00
      31   0.00000E+00
      32   0.00000E+00
      33   0.00000E+00
      34   0.00000E+00
      35   0.00000E+00
      36   0.00000E+00
      37   0.00000E+00
      38   0.00000E+00
      39   0.00000E+00
      40   0.00000E+00
      41   0.00000E+00
      42   0.00000E+00
      43   0.00000E+00
      44   0.00000E+00
      45   0.00000E+00
      46   0.00000E+00
      47   0.00000E+00
      48   0.00000E+00
      49   0.00000E+00
      50   0.00000E+00
      51   0.00000E+00
      52   0.00000E+00
      53   0.00000E+00
      54   0.00000E+00
      55   0.00000E+00
      56   0.00000E+00
      57   0.00000E+00
      58   0.00000E+00
      59   0.00000E+00
      60   0.00000E+00
      61   0.00000E+00
      62   0.00000E+00
      63   0.00000E+00
      64   0.00000E+00
      65   0.00000E+00
      66   0.00000E+00
      67   0.00000E+00
      68   0.00000E+00
      69   0.00000E+00
      70   0.00000E+00
      71   0.00000E+00
      72   0.00000E+00
      73   0.00000E+00
      74   0.00000E+00
      75   0.00000E+00
      76   0.00000E+00
      77   0.00000E+00
      78   0.00000E+00
      79   0.00000E+00
      80   0.00000E+00
      81   0.00000E+00
      82   0.00000E+00
      83   0.00000E+00
      84   0.00000E+00
      85   0.00000E+00
      86   0.00000E+00
      87   0.00000E+00
      88   0.00000E+00
      89   0.00000E+00
      90   0.00000E+00
      91   0.00000E+00
      92   0.00000E+00
      93   0.00000E+00
      94   0.00000E+00
      95   0.00000E+00
      96   0.00000E+00
      97   0.00000E+00
      98   0.00000E+00
      99   0.00000E+00
     100   0.00000E+00
     101   0.00000E+00
     102   0.00000E+00
     103   0.00000E+00
     104   0.00000E+00
     105   0.00000E+00
     106   0.00000E+00
     107   0.00000E+00
     108   0.00000E+00
     109   0.00000E+00
     110   0.00000E+00
     111   0.00000E+00
     112   0.00000E+00
     113   0.00000E+00
     114   0.00000E+00
     115   0.00000E+00
     116   0.00000E+00
     117   0.00000E+00
     118   0.00000E+00
     119   0.00000E+00
     120   0.00000E+00
     121   0.00000E+00
     122   0.00000E+00
     123   0.00000E+00
     124   0.00000E+00
     125   0.00000E+00
     126   0.00000E+00
     127   0.00000E+00
     128   0.00000E+00
     129   0.00000E+00
     130   0.00000E+00
     131   0.00000E+00
     132   0.00000E+00
     133   0.00000E+00
     134   0.00000E+00
     135   0.00000E+00
     136   0.00000E+00
     137   0.00000E+00
     138   0.00000E+00
     139   0.00000E+00
     140   0.00000E+00
     141   0.00000E+00
     142   0.00000E+00
     143   0.00000E+00
     144   0.00000E+00
     145   0.00000E+00
     146   0.00000E+00
     147   0.00000E+00
     148   0.00000E+00
     149   0.00000E+00
     150   0.00000E+00
     151   0.00000E+00
     152   0.00000E+00
     153   0.00000E+00
     154   0.00000E+00
     155   0.00000E+00
     156   0.00000E+00
     157   0.00000E+00
     158   0.00000E+00
     159   0.00000E+00
     160   0.00000E+00
     161   0.00000E+00
     162   0.00000E+00
     163   0.00000E+00
     164   0.00000E+00
     165   0.00000E+00
     166   0.00000E+00
     167   0.00000E+00
     168   0.00000E+00
     169   0.00000E+00
     170   0.00000E+00
     171   0.00000E+00
     172   0.00000E+00
     173   0.00000E+00
     174   0.00000E+00
     175   0.00000E+00
     176   0.00000E+00
     177   0.00000E+00
     178   0.00000E+00
     179   0.00000E+00
     180   0.00000E+00
     181   0.00000E+00
     182   0.00000E+00
     183   0.00000E+00
     184   0.00000E+00
     185   0.00000E+00
     186   0.00000E+00
     187   0.00000E+00
     188   0.00000E+00
     189   0.00000E+00
     190   0.00000E+00
     191   0.00000E+00
     192   0.00000E+00
     193   0.00000E+00
     194   0.00000E+00
     195   0.00000E+00
     196   0.00000E+00
     197   0.00000E+00
     198   0.00000E+00
     199   0.00000E+00
     200   0.00000E+00
     201   0.00000E+00
     202   0.00000E+00
     203   0.00000E+00
     204   0.00000E+00
     205   0.00000E+00
     206   0.00000E+00
     207   0.00000E+00
     208   0.00000E+00
     209   0.00000E+00
     210   0.00000E+00
     211   0.00000E+00
     212   0.00000E+00
     213   0.00000E+00
     214   0.00000E+00
     215   0.00000E+00
     216   0.00000E+00
     217   0.00000E+00
     218   0.00000E+00
     219   0.00000E+00
     220   0.00000E+00
     221   0.00000E+00
     222   0.00000E+00
     223   0.00000E+00
     224   0.00000E+00
     225   0.00000E+00
     226   0.00000E+00
     227   0.00000E+00
     228   0.00000E+00
     229   0.00000E+00
     230   0.00000E+00
     231   0.00000E+00
     232   0.00000E+00
     233   0.00000E+00
     234   0.00000E+00
     235   0.00000E+00
     236   0.00000E+00
     237   0.00000E+00
     238   0.00000E+00
     239   0.00000E+00
     240   0.00000E+00
     241   0.00000E+00
     242   0.00000E+00
     243   0.00000E+00
     244   0.00000E+00
     245   0.00000E+00
     246   0.00000E+00
     247   0.00000E+00
     248   0.00000E+00
     249   0.00000E+00
     250   0.00000E+00
     251   0.00000E+00
     252   0.00000E+00
     253   0.00000E+00
     254   0.00000E+00
     255   0.00000E+00
     256   0.00000E+00
     257   0.00000E+00
     258   0.00000E+00
     259   0.00000E+00
     260   0.00000E+00
     261   0.00000E+00
     262   0.00000E+00
     263   0.00000E+00
     264   0.00000E+00
     265   0.00000E+00
     266   0.00000E+00
     267   0.00000E+00
     268   0.00000E+00
     269   0.00000E+00
     270   0.00000E+00
     271   0.00000E+00
     272   0.00000E+00
     273   0.00000E+00
     274   0.00000E+00
     275   0.00000E+00
     276   0.00000E+00
     277   0.00000E+00
     278   0.00000E+00
     279   0.00000E+00
     280   0.00000E+00
     281   0.00000E+00
     282   0.00000E+00
     283   0.00000E+00
     284   0.00000E+00
     285   0.00000E+00
     286   0.00000E+00
     287   0.00000E+00
     288   0.00000E+00
     289   0.00000E+00
     290   0.00000E+00
     291   0.00000E+00
     292   0.00000E+00
     293   0.00000E+00
     294   0.00000E+00
     295   0.00000E+00
     296   0.00000E+00
     297   0.00000E+00
     298   0.00000E+00
     299   0.00000E+00
     300   0.00000E+00
  ------------ 
  k    averhoc
           1  1.629409600438535E-016
           2  1.839765472871778E-016
           3  2.524849222333603E-016
           4  3.861396530832298E-016
           5  6.190405426706639E-016
           6  1.010893395728870E-015
           7  1.664698275183887E-015
           8  2.749977212295236E-015
           9  4.545277807083387E-015
          10  7.509405533740303E-015
          11  1.242857824865484E-014
          12  2.056817438946488E-014
          13  3.400691412931327E-014
          14  5.631242439992380E-014
          15  9.320133072937266E-014
          16  1.542668014480372E-013
          17  2.555447820682052E-013
          18  4.230024451055857E-013
          19  7.009851395138510E-013
          20  1.160802867526465E-012
          21  1.924225965439117E-012
          22  3.188573204426656E-012
          23  5.284306196137151E-012
          24  8.765619873379467E-012
          25  1.453447830025807E-011
          26  2.410469577059653E-011
          27  3.999415794564676E-011
          28  6.638918330665908E-011
          29  1.102157260371515E-010
          30  1.829850879612827E-010
          31  3.039402365351148E-010
          32  5.050073653596360E-010
          33  8.392820899510439E-010
          34  1.395525208164227E-009
          35  2.320984161382088E-009
          36  3.861414712587603E-009
          37  6.426927423306540E-009
          38  1.070457534669245E-008
          39  1.783166214214103E-008
          40  2.972957558629309E-008
          41  4.957465113918950E-008
          42  8.273669188344358E-008
          43  1.381789677755991E-007
          44  2.308353192451368E-007
          45  3.860130465320068E-007
          46  6.457528735340697E-007
          47  1.081076933418981E-006
          48  1.811524316665280E-006
          49  3.037626314683368E-006
          50  5.097563927634557E-006
          51  8.558952205922704E-006
          52  1.438033779017468E-005
          53  2.417685739049893E-005
          54  4.065976207338001E-005
          55  6.838089878880123E-005
          56  1.149484347853984E-004
          57  1.930734024545285E-004
          58  3.236873476290839E-004
          59  5.410825890321793E-004
          60  9.001849216966413E-004
          61  1.486687581980271E-003
          62  2.428210545417025E-003
          63  3.900883012148957E-003
          64  6.114417705699749E-003
          65  9.238781345592953E-003
          66  1.323874526093816E-002
          67  1.773249218378107E-002
          68  2.277797923804878E-002
          69  3.119320635574668E-002
          70  4.425336744544342E-002
          71  5.526540715509951E-002
          72  5.526540715509951E-002
          73  4.425336744544342E-002
          74  3.119320635574668E-002
          75  2.277797923804878E-002
          76  1.773249218378107E-002
          77  1.323874526093816E-002
          78  9.238781345592953E-003
          79  6.114417705699749E-003
          80  3.900883012148957E-003
          81  2.428210545417025E-003
          82  1.486687581980276E-003
          83  9.001849216966413E-004
          84  5.410825890321793E-004
          85  3.236873476290825E-004
          86  1.930734024545273E-004
          87  1.149484347853991E-004
          88  6.838089878880123E-005
          89  4.065976207338001E-005
          90  2.417685739049885E-005
          91  1.438033779017475E-005
          92  8.558952205922757E-006
          93  5.097563927634557E-006
          94  3.037626314683368E-006
          95  1.811524316665273E-006
          96  1.081076933418985E-006
          97  6.457528735340726E-007
          98  3.860130465320068E-007
          99  2.308353192451368E-007
         100  1.381789677755984E-007
         101  8.273669188344406E-008
         102  4.957465113918962E-008
         103  2.972957558629309E-008
         104  1.783166214214097E-008
         105  1.070457534669238E-008
         106  6.426927423306569E-009
         107  3.861414712587619E-009
         108  2.320984161382088E-009
         109  1.395525208164223E-009
         110  8.392820899510394E-010
         111  5.050073653596381E-010
         112  3.039402365351148E-010
         113  1.829850879612827E-010
         114  1.102157260371515E-010
         115  6.638918330665890E-011
         116  3.999415794564676E-011
         117  2.410469577059653E-011
         118  1.453447830025807E-011
         119  8.765619873379467E-012
         120  5.284306196137127E-012
         121  3.188573204426656E-012
         122  1.924225965439117E-012
         123  1.160802867526465E-012
         124  7.009851395138510E-013
         125  4.230024451055873E-013
         126  2.555447820682052E-013
         127  1.542668014480372E-013
         128  9.320133072937266E-014
         129  5.631242439992364E-014
         130  3.400691412931332E-014
         131  2.056817438946488E-014
         132  1.242857824865484E-014
         133  7.509405533740303E-015
         134  4.545277807083370E-015
         135  2.749977212295253E-015
         136  1.664698275183887E-015
         137  1.010893395728870E-015
         138  6.190405426706639E-016
         139  3.861396530832272E-016
         140  2.524849222333606E-016
         141  1.839765472871778E-016
  ------------ 
  k    rhog_core(k)
       1   0.29769E-02   0.00000E+00
       2  -0.29332E-02   0.76015E-19
       3  -0.29332E-02   0.58892E-19
       4  -0.29332E-02   0.12599E-18
       5  -0.29332E-02  -0.12420E-18
       6  -0.29332E-02  -0.13299E-18
       7  -0.29332E-02  -0.13388E-18
       8   0.28905E-02  -0.18089E-18
       9   0.28905E-02  -0.22891E-18
      10   0.28905E-02   0.56521E-19
      11   0.28905E-02   0.46683E-19
      12   0.28905E-02  -0.22584E-18
      13   0.28905E-02   0.73155E-19
      14   0.28905E-02   0.58308E-19
      15   0.28905E-02   0.27065E-18
      16   0.28905E-02   0.60697E-19
      17   0.28905E-02   0.59742E-19
      18   0.28905E-02   0.27016E-18
      19   0.28905E-02   0.25491E-18
      20  -0.28485E-02   0.34011E-18
      21  -0.28485E-02   0.44977E-19
      22  -0.28485E-02   0.37788E-19
      23  -0.28485E-02  -0.18200E-18
      24  -0.28485E-02   0.36460E-19
      25  -0.28485E-02  -0.19854E-18
      26  -0.28485E-02  -0.25228E-18
      27  -0.28485E-02  -0.37965E-18
      28   0.28074E-02   0.10569E-18
      29   0.28074E-02   0.14315E-18
      30   0.28074E-02   0.18879E-18
      31   0.28074E-02  -0.18808E-19
      32   0.28074E-02  -0.28700E-19
      33   0.28074E-02  -0.33926E-19
      34  -0.27671E-02  -0.53901E-20
      35  -0.27671E-02  -0.13046E-18
      36  -0.27671E-02  -0.22909E-18
      37  -0.27671E-02  -0.22973E-18
      38  -0.27671E-02  -0.14232E-19
      39  -0.27671E-02   0.49035E-20
      40  -0.27671E-02   0.11626E-18
      41  -0.27671E-02   0.10596E-18
      42  -0.27671E-02  -0.15788E-18
      43  -0.27671E-02  -0.26772E-18
      44  -0.27671E-02  -0.77706E-19
      45  -0.27671E-02   0.98187E-19
      46  -0.27671E-02  -0.27965E-18
      47  -0.27671E-02  -0.80837E-19
      48  -0.27671E-02   0.64058E-19
      49  -0.27671E-02  -0.91373E-19
      50  -0.27671E-02  -0.24348E-18
      51  -0.27671E-02  -0.28192E-18
      52  -0.27671E-02  -0.79615E-19
      53  -0.27671E-02  -0.88961E-19
      54  -0.27671E-02   0.11221E-18
      55  -0.27671E-02   0.67513E-19
      56  -0.27671E-02  -0.96525E-19
      57  -0.27671E-02  -0.89989E-19
      58   0.27276E-02  -0.66917E-19
      59   0.27276E-02   0.11022E-18
      60   0.27276E-02   0.22836E-18
      61   0.27276E-02   0.33489E-18
      62   0.27276E-02  -0.11113E-18
      63   0.27276E-02   0.13599E-18
      64   0.27276E-02  -0.12978E-19
      65   0.27276E-02  -0.22406E-18
      66   0.27276E-02   0.20606E-18
      67   0.27276E-02  -0.55903E-20
      68   0.27276E-02  -0.17926E-18
      69   0.27276E-02   0.19747E-19
      70   0.27276E-02   0.14475E-18
      71   0.27276E-02   0.35230E-18
      72   0.27276E-02   0.20737E-18
      73   0.27276E-02   0.15846E-19
      74   0.27276E-02   0.39233E-18
      75   0.27276E-02   0.18771E-18
      76   0.27276E-02  -0.41285E-19
      77   0.27276E-02   0.20875E-18
      78   0.27276E-02  -0.24180E-18
      79   0.27276E-02   0.16386E-19
      80   0.27276E-02  -0.29886E-19
      81   0.27276E-02   0.21741E-18
      82   0.26509E-02   0.22327E-18
      83   0.26509E-02   0.21059E-18
      84   0.26509E-02   0.71321E-19
      85   0.26509E-02   0.64323E-19
      86   0.26509E-02   0.23668E-18
      87   0.26509E-02   0.99475E-19
      88   0.26509E-02   0.16925E-18
      89   0.26509E-02  -0.57326E-19
      90   0.26509E-02   0.92465E-19
      91   0.26509E-02   0.96014E-19
      92   0.26509E-02  -0.73131E-19
      93   0.26509E-02  -0.55981E-19
      94  -0.26137E-02   0.10599E-18
      95  -0.26137E-02  -0.10621E-18
      96  -0.26137E-02  -0.32364E-18
      97  -0.26137E-02  -0.94267E-19
      98  -0.26137E-02   0.26854E-19
      99  -0.26137E-02  -0.22579E-18
     100  -0.26137E-02  -0.19468E-18
 1492913   0.30994E-06  -0.72728E-20
 1492914   0.30994E-06  -0.38631E-20
 1492915   0.30994E-06  -0.65571E-20
 1492916   0.30994E-06  -0.30093E-20
 1492917   0.30994E-06  -0.25327E-20
 1492918   0.29424E-06   0.45553E-20
 1492919   0.29424E-06   0.47690E-20
 1492920   0.29424E-06  -0.47747E-21
 1492921   0.29424E-06  -0.35438E-20
 1492922   0.29424E-06  -0.27300E-21
 1492923   0.29424E-06  -0.34302E-20
 1492924   0.29424E-06   0.23378E-20
 1492925   0.29424E-06   0.25836E-20
 1492926   0.39017E-06  -0.62754E-22
 1492927   0.39017E-06   0.99601E-22
 1492928   0.39017E-06   0.21859E-20
 1492929   0.39017E-06   0.18689E-20
 1492930   0.39017E-06   0.16347E-20
 1492931   0.39017E-06   0.13406E-20
 1492932   0.39017E-06  -0.86204E-21
 1492933   0.39017E-06  -0.70004E-21
 1492934   0.29502E-06  -0.10589E-19
 1492935   0.29502E-06  -0.82456E-20
 1492936   0.29502E-06  -0.59952E-20
 1492937   0.29502E-06  -0.58903E-20
 1492938   0.29502E-06  -0.43551E-20
 1492939   0.29502E-06  -0.43934E-20
 1492940   0.29502E-06  -0.11316E-19
 1492941   0.29502E-06  -0.90345E-20
 1492942   0.29502E-06  -0.92366E-20
 1492943   0.29502E-06  -0.70968E-20
 1492944   0.29424E-06  -0.87820E-20
 1492945   0.29424E-06  -0.85768E-20
 1492946   0.30994E-06  -0.82651E-20
 1492947   0.30994E-06  -0.80311E-20
 1492948   0.30994E-06  -0.40818E-20
 1492949   0.30994E-06  -0.33066E-20
 1492950   0.29424E-06  -0.54552E-20
 1492951   0.29424E-06  -0.45506E-20
 1492952   0.29502E-06  -0.61585E-20
 1492953   0.29502E-06  -0.66696E-20
 1492954   0.29502E-06  -0.53627E-20
 1492955   0.29502E-06  -0.56600E-20
 1492956   0.29424E-06  -0.52668E-20
 1492957   0.29424E-06  -0.42706E-20
 1492958   0.30994E-06  -0.48082E-20
 1492959   0.30994E-06  -0.38237E-20
 1492960   0.30994E-06  -0.68079E-20
 1492961   0.30994E-06  -0.65949E-20
 1492962   0.29424E-06  -0.75065E-20
 1492963   0.29424E-06  -0.73212E-20
 1492964   0.29502E-06  -0.99397E-20
 1492965   0.29502E-06  -0.78199E-20
 1492966   0.39529E-06  -0.37111E-21
 1492967   0.39529E-06  -0.62095E-21
 1492968   0.39529E-06   0.37735E-20
 1492969   0.39529E-06   0.30557E-20
 1492970   0.39529E-06   0.30847E-20
 1492971   0.39529E-06   0.23628E-20
 1492972   0.39529E-06  -0.12461E-20
 1492973   0.39529E-06  -0.14805E-20
 1492974   0.51486E-06   0.44177E-20
 1492975   0.51486E-06   0.42053E-20
 1492976   0.46805E-06   0.24118E-20
 1492977   0.46805E-06   0.31126E-20
 1492978   0.46805E-06   0.29638E-20
 1492979   0.46805E-06   0.28322E-20
 1492980   0.51486E-06   0.44650E-20
 1492981   0.51486E-06   0.48821E-20
 1492982   0.51486E-06   0.33699E-20
 1492983   0.51486E-06   0.37694E-20
 1492984   0.46805E-06   0.32995E-20
 1492985   0.46805E-06   0.31753E-20
 1492986   0.46805E-06   0.21362E-20
 1492987   0.46805E-06   0.28809E-20
 1492988   0.51486E-06   0.54496E-20
 1492989   0.51486E-06   0.52326E-20
 1492990   0.45780E-06  -0.83330E-21
 1492991   0.45780E-06  -0.11590E-20
 1492992   0.45780E-06  -0.25584E-20
 1492993   0.45780E-06  -0.17925E-20
 1492994   0.45780E-06  -0.25868E-20
 1492995   0.45780E-06  -0.18111E-20
 1492996   0.45780E-06   0.12086E-21
 1492997   0.45780E-06  -0.20949E-21
 1492998   0.15481E-06  -0.40303E-20
 1492999   0.15481E-06  -0.39594E-20
 1493000   0.15540E-06  -0.35093E-20
 1493001   0.15540E-06  -0.34906E-20
 1493002   0.15540E-06  -0.34484E-20
 1493003   0.15540E-06  -0.34224E-20
 1493004   0.15481E-06  -0.44343E-20
 1493005   0.15481E-06  -0.42354E-20
 1493006   0.15481E-06  -0.43883E-20
 1493007   0.15481E-06  -0.41850E-20
 1493008   0.15540E-06  -0.33634E-20
 1493009   0.15540E-06  -0.33423E-20
 1493010   0.15540E-06  -0.34384E-20
 1493011   0.15540E-06  -0.34406E-20
 1493012   0.15481E-06  -0.41175E-20
 1493013   0.15481E-06  -0.40539E-20
  ------------ 

     Initial potential from superposition of free atoms

     starting charge    8.99978, renormalised to    9.00000

     negative rho (up, down):  9.369E-06 9.369E-06
     Starting wfc are    9 randomized atomic wfcs +   16 random wfc

     total cpu time spent up to now is      147.7 secs

     per-process dynamical memory:  1440.5 Mb

     Self-consistent Calculation

     iteration #  1     ecut=   200.00 Ry     beta=0.70
     Davidson diagonalization with overlap
     ethr =  1.00E-02,  avg # of iterations =  9.2

     negative rho (up, down):  1.199E-05 2.550E-05

     total cpu time spent up to now is     1034.2 secs

     total energy              =     -82.32007296 Ry
     Harris-Foulkes estimate   =     -82.36046499 Ry
     estimated scf accuracy    <       0.38928151 Ry

     total magnetization       =     3.00 Bohr mag/cell
     absolute magnetization    =     3.00 Bohr mag/cell

     iteration #  2     ecut=   200.00 Ry     beta=0.70
     Davidson diagonalization with overlap
     ethr =  4.33E-03,  avg # of iterations =  1.1

     negative rho (up, down):  0.000E+00 1.155E-05

     total cpu time spent up to now is     1283.3 secs

     total energy              =     -82.34185566 Ry
     Harris-Foulkes estimate   =     -82.34394486 Ry
     estimated scf accuracy    <       0.12912740 Ry

     total magnetization       =     3.00 Bohr mag/cell
     absolute magnetization    =     3.00 Bohr mag/cell

     iteration #  3     ecut=   200.00 Ry     beta=0.70
     Davidson diagonalization with overlap
     ethr =  1.43E-03,  avg # of iterations =  1.9

     total cpu time spent up to now is     1530.7 secs

     total energy              =     -82.32594067 Ry
     Harris-Foulkes estimate   =     -82.36832236 Ry
     estimated scf accuracy    <       0.23654867 Ry

     total magnetization       =     3.00 Bohr mag/cell
     absolute magnetization    =     3.06 Bohr mag/cell

     iteration #  4     ecut=   200.00 Ry     beta=0.70
     Davidson diagonalization with overlap
     ethr =  1.43E-03,  avg # of iterations =  1.0

     total cpu time spent up to now is     1772.5 secs

     total energy              =     -82.35574463 Ry
     Harris-Foulkes estimate   =     -82.36323497 Ry
     estimated scf accuracy    <       0.07298819 Ry

     total magnetization       =     3.00 Bohr mag/cell
     absolute magnetization    =     3.00 Bohr mag/cell

     iteration #  5     ecut=   200.00 Ry     beta=0.70
     Davidson diagonalization with overlap
     ethr =  8.11E-04,  avg # of iterations =  1.0

     total cpu time spent up to now is     2013.7 secs

     total energy              =     -82.35717276 Ry
     Harris-Foulkes estimate   =     -82.35641742 Ry
     estimated scf accuracy    <       0.04429760 Ry

     total magnetization       =     3.00 Bohr mag/cell
     absolute magnetization    =     3.00 Bohr mag/cell

     iteration #  6     ecut=   200.00 Ry     beta=0.70
     Davidson diagonalization with overlap
     ethr =  4.92E-04,  avg # of iterations =  1.0

     total cpu time spent up to now is     2254.7 secs

     total energy              =     -82.34190789 Ry
     Harris-Foulkes estimate   =     -82.35719412 Ry
     estimated scf accuracy    <       0.04584725 Ry

     total magnetization       =     3.00 Bohr mag/cell
     absolute magnetization    =     3.00 Bohr mag/cell

     iteration #  7     ecut=   200.00 Ry     beta=0.70
     Davidson diagonalization with overlap
     ethr =  4.92E-04,  avg # of iterations =  1.0

     total cpu time spent up to now is     2494.9 secs

     total energy              =     -82.36547209 Ry
     Harris-Foulkes estimate   =     -82.37899453 Ry
     estimated scf accuracy    <       0.23412125 Ry

     total magnetization       =     3.00 Bohr mag/cell
     absolute magnetization    =     3.06 Bohr mag/cell

     iteration #  8     ecut=   200.00 Ry     beta=0.70
     Davidson diagonalization with overlap
     ethr =  4.92E-04,  avg # of iterations =  1.0

     total cpu time spent up to now is     2737.4 secs

     total energy              =     -82.33191055 Ry
     Harris-Foulkes estimate   =     -82.36619594 Ry
     estimated scf accuracy    <       0.18498610 Ry

     total magnetization       =     3.00 Bohr mag/cell
     absolute magnetization    =     3.06 Bohr mag/cell

     iteration #  9     ecut=   200.00 Ry     beta=0.70
     Davidson diagonalization with overlap
     ethr =  4.92E-04,  avg # of iterations =  1.8

     total cpu time spent up to now is     2987.4 secs

     total energy              =     -82.35595267 Ry
     Harris-Foulkes estimate   =     -82.36620346 Ry
     estimated scf accuracy    <       0.08096169 Ry

     total magnetization       =     3.00 Bohr mag/cell
     absolute magnetization    =     3.00 Bohr mag/cell

     iteration # 10     ecut=   200.00 Ry     beta=0.70
     Davidson diagonalization with overlap
     ethr =  4.92E-04,  avg # of iterations =  1.0

     total cpu time spent up to now is     3231.7 secs

     total energy              =     -82.35455865 Ry
     Harris-Foulkes estimate   =     -82.35681827 Ry
     estimated scf accuracy    <       0.04925236 Ry

     total magnetization       =     3.00 Bohr mag/cell
     absolute magnetization    =     3.00 Bohr mag/cell

     iteration # 11     ecut=   200.00 Ry     beta=0.70
     Davidson diagonalization with overlap
     ethr =  4.92E-04,  avg # of iterations =  1.0

     total cpu time spent up to now is     3477.5 secs

     total energy              =     -82.35542548 Ry
     Harris-Foulkes estimate   =     -82.35466020 Ry
     estimated scf accuracy    <       0.04109370 Ry

     total magnetization       =     3.00 Bohr mag/cell
     absolute magnetization    =     3.00 Bohr mag/cell

     iteration # 12     ecut=   200.00 Ry     beta=0.70
     Davidson diagonalization with overlap
     ethr =  4.57E-04,  avg # of iterations =  1.0

     total cpu time spent up to now is     3721.2 secs

     total energy              =     -82.35432626 Ry
     Harris-Foulkes estimate   =     -82.35544059 Ry
     estimated scf accuracy    <       0.04432897 Ry

     total magnetization       =     3.00 Bohr mag/cell
     absolute magnetization    =     3.00 Bohr mag/cell

     iteration # 13     ecut=   200.00 Ry     beta=0.70
     Davidson diagonalization with overlap
     ethr =  4.57E-04,  avg # of iterations =  1.0

     negative rho (up, down):  0.000E+00 4.825E-06

     total cpu time spent up to now is     3968.3 secs

     total energy              =     -82.33671964 Ry
     Harris-Foulkes estimate   =     -82.35435984 Ry
     estimated scf accuracy    <       0.03919992 Ry

     total magnetization       =     3.00 Bohr mag/cell
     absolute magnetization    =     3.00 Bohr mag/cell

     iteration # 14     ecut=   200.00 Ry     beta=0.70
     Davidson diagonalization with overlap
     ethr =  4.36E-04,  avg # of iterations =  1.8

     total cpu time spent up to now is     4226.5 secs

     total energy              =     -82.35652469 Ry
     Harris-Foulkes estimate   =     -82.39524041 Ry
     estimated scf accuracy    <       0.32521073 Ry

     total magnetization       =     3.00 Bohr mag/cell
     absolute magnetization    =     3.06 Bohr mag/cell

     iteration # 15     ecut=   200.00 Ry     beta=0.70
     Davidson diagonalization with overlap
     ethr =  4.36E-04,  avg # of iterations =  1.5

     total cpu time spent up to now is     4482.1 secs

     total energy              =     -82.35681333 Ry
     Harris-Foulkes estimate   =     -82.36191808 Ry
     estimated scf accuracy    <       0.17422672 Ry

     total magnetization       =     3.00 Bohr mag/cell
     absolute magnetization    =     3.07 Bohr mag/cell

     iteration # 16     ecut=   200.00 Ry     beta=0.70
     Davidson diagonalization with overlap
     ethr =  4.36E-04,  avg # of iterations =  1.0

     total cpu time spent up to now is     4731.0 secs

     total energy              =     -82.35222855 Ry
     Harris-Foulkes estimate   =     -82.35703580 Ry
     estimated scf accuracy    <       0.15193291 Ry

     total magnetization       =     3.00 Bohr mag/cell
     absolute magnetization    =     3.06 Bohr mag/cell

     iteration # 17     ecut=   200.00 Ry     beta=0.70
     Davidson diagonalization with overlap
     ethr =  4.36E-04,  avg # of iterations =  1.0

     total cpu time spent up to now is     4986.3 secs

     total energy              =     -82.35397406 Ry
     Harris-Foulkes estimate   =     -82.35437113 Ry
     estimated scf accuracy    <       0.03942563 Ry

     total magnetization       =     3.00 Bohr mag/cell
     absolute magnetization    =     3.00 Bohr mag/cell

     iteration # 18     ecut=   200.00 Ry     beta=0.70
     Davidson diagonalization with overlap
     ethr =  4.36E-04,  avg # of iterations =  1.0

     total cpu time spent up to now is     5241.6 secs

     total energy              =     -82.35404412 Ry
     Harris-Foulkes estimate   =     -82.35410295 Ry
     estimated scf accuracy    <       0.01550325 Ry

     total magnetization       =     3.00 Bohr mag/cell
     absolute magnetization    =     3.00 Bohr mag/cell

     iteration # 19     ecut=   200.00 Ry     beta=0.70
     Davidson diagonalization with overlap
     ethr =  1.72E-04,  avg # of iterations =  1.0

     total cpu time spent up to now is     5495.4 secs

     total energy              =     -82.35399084 Ry
     Harris-Foulkes estimate   =     -82.35404622 Ry
     estimated scf accuracy    <       0.00767143 Ry

     total magnetization       =     3.00 Bohr mag/cell
     absolute magnetization    =     3.00 Bohr mag/cell

     iteration # 20     ecut=   200.00 Ry     beta=0.70
     Davidson diagonalization with overlap
     ethr =  8.52E-05,  avg # of iterations =  1.0

     total cpu time spent up to now is     5753.9 secs

     total energy              =     -82.35398343 Ry
     Harris-Foulkes estimate   =     -82.35412273 Ry
     estimated scf accuracy    <       0.01552829 Ry

     total magnetization       =     3.00 Bohr mag/cell
     absolute magnetization    =     3.00 Bohr mag/cell

     iteration # 21     ecut=   200.00 Ry     beta=0.70
     Davidson diagonalization with overlap
     ethr =  8.52E-05,  avg # of iterations =  1.0

     total cpu time spent up to now is     6025.3 secs

     total energy              =     -82.35408342 Ry
     Harris-Foulkes estimate   =     -82.35409094 Ry
     estimated scf accuracy    <       0.00793268 Ry

     total magnetization       =     3.00 Bohr mag/cell
     absolute magnetization    =     3.00 Bohr mag/cell

     iteration # 22     ecut=   200.00 Ry     beta=0.70
     Davidson diagonalization with overlap
     ethr =  8.52E-05,  avg # of iterations =  1.0

     total cpu time spent up to now is     6289.0 secs

     total energy              =     -82.35407368 Ry
     Harris-Foulkes estimate   =     -82.35408344 Ry
     estimated scf accuracy    <       0.00793322 Ry

     total magnetization       =     3.00 Bohr mag/cell
     absolute magnetization    =     3.00 Bohr mag/cell

     iteration # 23     ecut=   200.00 Ry     beta=0.70
     Davidson diagonalization with overlap
     ethr =  8.52E-05,  avg # of iterations =  1.0

     total cpu time spent up to now is     6553.4 secs

     total energy              =     -82.35406081 Ry
     Harris-Foulkes estimate   =     -82.35407370 Ry
     estimated scf accuracy    <       0.00788618 Ry

     total magnetization       =     3.00 Bohr mag/cell
     absolute magnetization    =     3.00 Bohr mag/cell

     iteration # 24     ecut=   200.00 Ry     beta=0.70
     Davidson diagonalization with overlap
     ethr =  8.52E-05,  avg # of iterations =  1.0

     total cpu time spent up to now is     6825.6 secs

     total energy              =     -82.35400867 Ry
     Harris-Foulkes estimate   =     -82.35406083 Ry
     estimated scf accuracy    <       0.00783329 Ry

     total magnetization       =     3.00 Bohr mag/cell
     absolute magnetization    =     3.00 Bohr mag/cell

     iteration # 25     ecut=   200.00 Ry     beta=0.70
     Davidson diagonalization with overlap
     ethr =  8.52E-05,  avg # of iterations =  1.0

     total cpu time spent up to now is     7092.9 secs

     total energy              =     -82.35405998 Ry
     Harris-Foulkes estimate   =     -82.35409936 Ry
     estimated scf accuracy    <       0.01532270 Ry

     total magnetization       =     3.00 Bohr mag/cell
     absolute magnetization    =     3.00 Bohr mag/cell

     iteration # 26     ecut=   200.00 Ry     beta=0.70
     Davidson diagonalization with overlap
     ethr =  8.52E-05,  avg # of iterations =  1.0

     total cpu time spent up to now is     7361.2 secs

     total energy              =     -82.35401445 Ry
     Harris-Foulkes estimate   =     -82.35406008 Ry
     estimated scf accuracy    <       0.01516006 Ry

     total magnetization       =     3.00 Bohr mag/cell
     absolute magnetization    =     3.00 Bohr mag/cell

     Maximum CPU time exceeded

     max_seconds     =    7300.00
     elapsed seconds =    7360.19
     Calculation stopped in scf loop at iteration #    26

     Writing output data file Co.save
 
     init_run     :    100.93s CPU    146.53s WALL (       1 calls)
     electrons    :   6592.80s CPU   7214.77s WALL (       1 calls)

     Called by init_run:
     wfcinit      :     80.40s CPU     81.74s WALL (       1 calls)
     potinit      :      1.43s CPU      1.62s WALL (       1 calls)

     Called by electrons:
     c_bands      :   4444.70s CPU   4515.32s WALL (      26 calls)
     sum_band     :   1095.08s CPU   1628.80s WALL (      26 calls)
     v_of_rho     :     15.10s CPU     16.10s WALL (      27 calls)
     mix_rho      :   1036.70s CPU   1052.13s WALL (      26 calls)

     Called by c_bands:
     init_us_2    :     10.24s CPU     19.74s WALL (     424 calls)
     cegterg      :   4426.25s CPU   4491.88s WALL (     208 calls)

     Called by sum_band:

     Called by *egterg:
     h_psi        :   4377.92s CPU   4378.40s WALL (     514 calls)
     g_psi        :      6.80s CPU      6.80s WALL (     298 calls)
     cdiaghg      :      0.30s CPU      0.50s WALL (     506 calls)

     Called by h_psi:
     h_psi:pot    :   4367.82s CPU   4368.01s WALL (     514 calls)
     h_psi:calbec :      7.82s CPU      7.80s WALL (     514 calls)
     vloc_psi     :   4345.80s CPU   4345.94s WALL (     514 calls)
     add_vuspsi   :     14.19s CPU     14.27s WALL (     514 calls)

     General routines
     calbec       :      7.82s CPU      7.80s WALL (     514 calls)
     fft          :     34.48s CPU     34.56s WALL (     189 calls)
     ffts         :    725.18s CPU    725.32s WALL (    3964 calls)
     fftw         :   5151.54s CPU   5151.68s WALL (   28242 calls)
     davcio       :      0.01s CPU      1.64s WALL (      18 calls)
 
 
     PWSCF        :     1h51m CPU        2h 2m WALL

 
   This run was terminated on:  22:38:34  26Jul2018            

=------------------------------------------------------------------------------=
   JOB DONE.
=------------------------------------------------------------------------------=
