
     Program PWSCF v.6.0 (svn rev. 13079) starts on 27Jul2018 at 10: 1:53 

     This program is part of the open-source Quantum ESPRESSO suite
     for quantum simulation of materials; please cite
         "P. Giannozzi et al., J. Phys.:Condens. Matter 21 395502 (2009);
          URL http://www.quantum-espresso.org", 
     in publications or presentations arising from this work. More details at
     http://www.quantum-espresso.org/quote

     Serial version
     Waiting for input...
     Reading input from standard input
     Message from routine read_cards :
     DEPRECATED: no units specified in CELL_PARAMETERS card

     Current dimensions of program PWSCF are:
     Max number of different atomic species (ntypx) = 10
     Max number of k-points (npk) =  40000
     Max angular momentum in pseudopotentials (lmaxx) =  3
 
     G-vector sticks info
     --------------------
     sticks:   dense  smooth     PW     G-vecs:    dense   smooth      PW
     Sum       15793   15793   4149              1493013  1493013  200597
 


     bravais-lattice index     =            0
     lattice parameter (alat)  =       4.5000  a.u.
     unit-cell volume          =    3906.9844 (a.u.)^3
     number of atoms/cell      =            1
     number of atomic types    =            1
     number of electrons       =         6.00
     number of Kohn-Sham states=           10
     kinetic-energy cutoff     =     200.0000  Ry
     charge density cutoff     =     800.0000  Ry
     convergence threshold     =      5.0E-06
     mixing beta               =       0.7000
     number of iterations used =            4  local-TF  mixing
     Exchange-correlation      = PZ ( 1  1  0  0 0 0)

     celldm(1)=   4.500000  celldm(2)=   0.000000  celldm(3)=   0.000000
     celldm(4)=   0.000000  celldm(5)=   0.000000  celldm(6)=   0.000000

     crystal axes: (cart. coord. in units of alat)
               a(1) = (   3.500000   0.000000   0.000000 )  
               a(2) = (   0.000000   3.500000   0.000000 )  
               a(3) = (   0.000000   0.000000   3.500000 )  

     reciprocal axes: (cart. coord. in units 2 pi/alat)
               b(1) = (  0.285714  0.000000  0.000000 )  
               b(2) = (  0.000000  0.285714  0.000000 )  
               b(3) = (  0.000000  0.000000  0.285714 )  


     PseudoPot. # 1 for Te read from file:
     ./Te.UPF
     MD5 check sum: 6e7b0c05604fc12971b845753c170364
     Pseudo is Norm-conserving + core correction, Zval =  6.0
     Generated using "atomic" code by A. Dal Corso  v.6.0 svn rev. 13079
     Using radial grid of 1245 points,  2 beta functions with: 
                l(1) =   1
                l(2) =   2

     atomic species   valence    mass     pseudopotential
        Te             6.00    12.00000     Te( 1.00)

     Starting magnetic structure 
     atomic species   magnetization
        Te           0.010

     48 Sym. Ops., with inversion, found



   Cartesian axes

     site n.     atom                  positions (alat units)
         1           Te  tau(   1) = (   1.7500000   1.7500000   1.7500000  )

     number of k points=     4  gaussian smearing, width (Ry)=  0.0030
                       cart. coord. in units 2pi/alat
        k(    1) = (   0.0000000   0.0000000   0.0000000), wk =   0.1250000
        k(    2) = (   0.0000000   0.0000000  -0.1428571), wk =   0.3750000
        k(    3) = (   0.0000000  -0.1428571  -0.1428571), wk =   0.3750000
        k(    4) = (  -0.1428571  -0.1428571  -0.1428571), wk =   0.1250000

     Dense  grid:  1493013 G-vectors     FFT dimensions: ( 141, 141, 141)

     Estimated max dynamical RAM per process >    1904.10Mb
     Generating pointlists ...
     new r_m :   0.4125 (alat units)  1.8563 (a.u.) for type    1
dfftp%nnr =2803221
    141    141    141    141    141    141
SIZE(dfftp%isind) =   19881
bg(1:3,1):   0.2857  0.0000  0.0000
bg(1:3,2):   0.0000  0.2857  0.0000
bg(1:3,3):   0.0000  0.0000  0.2857
at(1:3,1):   3.5000  0.0000  0.0000
at(1:3,2):   0.0000  3.5000  0.0000
at(1:3,3):   0.0000  0.0000  3.5000
nt =     1 na =    1
tau(:,na) =    1.75000   1.75000   1.75000
  k    rho_core(k)
       1   0.00000E+00
       2   0.00000E+00
       3   0.00000E+00
       4   0.00000E+00
       5   0.00000E+00
       6   0.00000E+00
       7   0.00000E+00
       8   0.00000E+00
       9   0.00000E+00
      10   0.00000E+00
      11   0.00000E+00
      12   0.00000E+00
      13   0.00000E+00
      14   0.00000E+00
      15   0.00000E+00
      16   0.00000E+00
      17   0.00000E+00
      18   0.00000E+00
      19   0.00000E+00
      20   0.00000E+00
      21   0.00000E+00
      22   0.00000E+00
      23   0.00000E+00
      24   0.00000E+00
      25   0.00000E+00
      26   0.00000E+00
      27   0.00000E+00
      28   0.00000E+00
      29   0.00000E+00
      30   0.00000E+00
      31   0.00000E+00
      32   0.00000E+00
      33   0.00000E+00
      34   0.00000E+00
      35   0.00000E+00
      36   0.00000E+00
      37   0.00000E+00
      38   0.00000E+00
      39   0.00000E+00
      40   0.00000E+00
      41   0.00000E+00
      42   0.00000E+00
      43   0.00000E+00
      44   0.00000E+00
      45   0.00000E+00
      46   0.00000E+00
      47   0.00000E+00
      48   0.00000E+00
      49   0.00000E+00
      50   0.00000E+00
      51   0.00000E+00
      52   0.00000E+00
      53   0.00000E+00
      54   0.00000E+00
      55   0.00000E+00
      56   0.00000E+00
      57   0.00000E+00
      58   0.00000E+00
      59   0.00000E+00
      60   0.00000E+00
      61   0.00000E+00
      62   0.00000E+00
      63   0.00000E+00
      64   0.00000E+00
      65   0.00000E+00
      66   0.00000E+00
      67   0.00000E+00
      68   0.00000E+00
      69   0.00000E+00
      70   0.00000E+00
      71   0.00000E+00
      72   0.00000E+00
      73   0.00000E+00
      74   0.00000E+00
      75   0.00000E+00
      76   0.00000E+00
      77   0.00000E+00
      78   0.00000E+00
      79   0.00000E+00
      80   0.00000E+00
      81   0.00000E+00
      82   0.00000E+00
      83   0.00000E+00
      84   0.00000E+00
      85   0.00000E+00
      86   0.00000E+00
      87   0.00000E+00
      88   0.00000E+00
      89   0.00000E+00
      90   0.00000E+00
      91   0.00000E+00
      92   0.00000E+00
      93   0.00000E+00
      94   0.00000E+00
      95   0.00000E+00
      96   0.00000E+00
      97   0.00000E+00
      98   0.00000E+00
      99   0.00000E+00
     100   0.00000E+00
     101   0.00000E+00
     102   0.00000E+00
     103   0.00000E+00
     104   0.00000E+00
     105   0.00000E+00
     106   0.00000E+00
     107   0.00000E+00
     108   0.00000E+00
     109   0.00000E+00
     110   0.00000E+00
     111   0.00000E+00
     112   0.00000E+00
     113   0.00000E+00
     114   0.00000E+00
     115   0.00000E+00
     116   0.00000E+00
     117   0.00000E+00
     118   0.00000E+00
     119   0.00000E+00
     120   0.00000E+00
     121   0.00000E+00
     122   0.00000E+00
     123   0.00000E+00
     124   0.00000E+00
     125   0.00000E+00
     126   0.00000E+00
     127   0.00000E+00
     128   0.00000E+00
     129   0.00000E+00
     130   0.00000E+00
     131   0.00000E+00
     132   0.00000E+00
     133   0.00000E+00
     134   0.00000E+00
     135   0.00000E+00
     136   0.00000E+00
     137   0.00000E+00
     138   0.00000E+00
     139   0.00000E+00
     140   0.00000E+00
     141   0.00000E+00
     142   0.00000E+00
     143   0.00000E+00
     144   0.00000E+00
     145   0.00000E+00
     146   0.00000E+00
     147   0.00000E+00
     148   0.00000E+00
     149   0.00000E+00
     150   0.00000E+00
     151   0.00000E+00
     152   0.00000E+00
     153   0.00000E+00
     154   0.00000E+00
     155   0.00000E+00
     156   0.00000E+00
     157   0.00000E+00
     158   0.00000E+00
     159   0.00000E+00
     160   0.00000E+00
     161   0.00000E+00
     162   0.00000E+00
     163   0.00000E+00
     164   0.00000E+00
     165   0.00000E+00
     166   0.00000E+00
     167   0.00000E+00
     168   0.00000E+00
     169   0.00000E+00
     170   0.00000E+00
     171   0.00000E+00
     172   0.00000E+00
     173   0.00000E+00
     174   0.00000E+00
     175   0.00000E+00
     176   0.00000E+00
     177   0.00000E+00
     178   0.00000E+00
     179   0.00000E+00
     180   0.00000E+00
     181   0.00000E+00
     182   0.00000E+00
     183   0.00000E+00
     184   0.00000E+00
     185   0.00000E+00
     186   0.00000E+00
     187   0.00000E+00
     188   0.00000E+00
     189   0.00000E+00
     190   0.00000E+00
     191   0.00000E+00
     192   0.00000E+00
     193   0.00000E+00
     194   0.00000E+00
     195   0.00000E+00
     196   0.00000E+00
     197   0.00000E+00
     198   0.00000E+00
     199   0.00000E+00
     200   0.00000E+00
     201   0.00000E+00
     202   0.00000E+00
     203   0.00000E+00
     204   0.00000E+00
     205   0.00000E+00
     206   0.00000E+00
     207   0.00000E+00
     208   0.00000E+00
     209   0.00000E+00
     210   0.00000E+00
     211   0.00000E+00
     212   0.00000E+00
     213   0.00000E+00
     214   0.00000E+00
     215   0.00000E+00
     216   0.00000E+00
     217   0.00000E+00
     218   0.00000E+00
     219   0.00000E+00
     220   0.00000E+00
     221   0.00000E+00
     222   0.00000E+00
     223   0.00000E+00
     224   0.00000E+00
     225   0.00000E+00
     226   0.00000E+00
     227   0.00000E+00
     228   0.00000E+00
     229   0.00000E+00
     230   0.00000E+00
     231   0.00000E+00
     232   0.00000E+00
     233   0.00000E+00
     234   0.00000E+00
     235   0.00000E+00
     236   0.00000E+00
     237   0.00000E+00
     238   0.00000E+00
     239   0.00000E+00
     240   0.00000E+00
     241   0.00000E+00
     242   0.00000E+00
     243   0.00000E+00
     244   0.00000E+00
     245   0.00000E+00
     246   0.00000E+00
     247   0.00000E+00
     248   0.00000E+00
     249   0.00000E+00
     250   0.00000E+00
     251   0.00000E+00
     252   0.00000E+00
     253   0.00000E+00
     254   0.00000E+00
     255   0.00000E+00
     256   0.00000E+00
     257   0.00000E+00
     258   0.00000E+00
     259   0.00000E+00
     260   0.00000E+00
     261   0.00000E+00
     262   0.00000E+00
     263   0.00000E+00
     264   0.00000E+00
     265   0.00000E+00
     266   0.00000E+00
     267   0.00000E+00
     268   0.00000E+00
     269   0.00000E+00
     270   0.00000E+00
     271   0.00000E+00
     272   0.00000E+00
     273   0.00000E+00
     274   0.00000E+00
     275   0.00000E+00
     276   0.00000E+00
     277   0.00000E+00
     278   0.00000E+00
     279   0.00000E+00
     280   0.00000E+00
     281   0.00000E+00
     282   0.00000E+00
     283   0.00000E+00
     284   0.00000E+00
     285   0.00000E+00
     286   0.00000E+00
     287   0.00000E+00
     288   0.00000E+00
     289   0.00000E+00
     290   0.00000E+00
     291   0.00000E+00
     292   0.00000E+00
     293   0.00000E+00
     294   0.00000E+00
     295   0.00000E+00
     296   0.00000E+00
     297   0.00000E+00
     298   0.00000E+00
     299   0.00000E+00
     300   0.00000E+00
  ------------ 
  k    averhoc
           1  1.210715808722253E-013
           2  1.311496724415387E-013
           3  1.630914433423773E-013
           4  2.223562449534661E-013
           5  3.189486804847626E-013
           6  4.690510388354805E-013
           7  6.976922700810456E-013
           8  1.043210714966199E-012
           9  1.564794629639205E-012
          10  2.350458501444267E-012
          11  3.530546471322847E-012
          12  5.307602512951742E-012
          13  7.984843097056682E-012
          14  1.200676697310333E-011
          15  1.807113494729162E-011
          16  2.720174130595326E-011
          17  4.094573509833144E-011
          18  6.167982484797201E-011
          19  9.289592126283744E-011
          20  1.399998957648577E-010
          21  2.110276099887471E-010
          22  3.181592122889313E-010
          23  4.800018809891570E-010
          24  7.241214382138229E-010
          25  1.092864546223189E-009
          26  1.650393630889457E-009
          27  2.492697429811147E-009
          28  3.766376586903723E-009
          29  5.692953072109113E-009
          30  8.608999659749942E-009
          31  1.302409651733873E-008
          32  1.971435906496853E-008
          33  2.985336072306570E-008
          34  4.522837944861993E-008
          35  6.856486013764520E-008
          36  1.039865666306222E-007
          37  1.578048633283692E-007
          38  2.396161966040590E-007
          39  3.640650449148877E-007
          40  5.534865750610730E-007
          41  8.422375557123125E-007
          42  1.282423294668855E-006
          43  1.954066512408170E-006
          44  2.980850434912374E-006
          45  4.550569563790069E-006
          46  6.955323228984443E-006
          47  1.064255872731661E-005
          48  1.630406737801379E-005
          49  2.500771117768382E-005
          50  3.842083822422728E-005
          51  5.912897036481524E-005
          52  9.115863834822406E-005
          53  1.408215673204418E-004
          54  2.180090525371548E-004
          55  3.383295053390704E-004
          56  5.263741204822567E-004
          57  8.208966614149054E-004
          58  1.283254585064272E-003
          59  1.987683912498272E-003
          60  2.932521319672737E-003
          61  4.078726528842638E-003
          62  5.379688689933331E-003
          63  6.782185424486602E-003
          64  8.229053695245285E-003
          65  9.660703538475705E-003
          66  1.101838290279629E-002
          67  1.224726233939830E-002
          68  1.329690038559768E-002
          69  1.412373618915905E-002
          70  1.469466310244918E-002
          71  1.498590796837494E-002
          72  1.498590796837494E-002
          73  1.469466310244918E-002
          74  1.412373618915905E-002
          75  1.329690038559768E-002
          76  1.224726233939830E-002
          77  1.101838290279629E-002
          78  9.660703538475705E-003
          79  8.229053695245285E-003
          80  6.782185424486602E-003
          81  5.379688689933331E-003
          82  4.078726528842650E-003
          83  2.932521319672737E-003
          84  1.987683912498272E-003
          85  1.283254585064265E-003
          86  8.208966614149011E-004
          87  5.263741204822587E-004
          88  3.383295053390704E-004
          89  2.180090525371548E-004
          90  1.408215673204413E-004
          91  9.115863834822442E-005
          92  5.912897036481543E-005
          93  3.842083822422728E-005
          94  2.500771117768382E-005
          95  1.630406737801375E-005
          96  1.064255872731664E-005
          97  6.955323228984470E-006
          98  4.550569563790069E-006
          99  2.980850434912374E-006
         100  1.954066512408164E-006
         101  1.282423294668860E-006
         102  8.422375557123131E-007
         103  5.534865750610730E-007
         104  3.640650449148867E-007
         105  2.396161966040577E-007
         106  1.578048633283698E-007
         107  1.039865666306225E-007
         108  6.856486013764520E-008
         109  4.522837944861986E-008
         110  2.985336072306554E-008
         111  1.971435906496866E-008
         112  1.302409651733873E-008
         113  8.608999659749942E-009
         114  5.692953072109113E-009
         115  3.766376586903711E-009
         116  2.492697429811147E-009
         117  1.650393630889457E-009
         118  1.092864546223189E-009
         119  7.241214382138229E-010
         120  4.800018809891558E-010
         121  3.181592122889313E-010
         122  2.110276099887471E-010
         123  1.399998957648577E-010
         124  9.289592126283744E-011
         125  6.167982484797224E-011
         126  4.094573509833144E-011
         127  2.720174130595326E-011
         128  1.807113494729162E-011
         129  1.200676697310328E-011
         130  7.984843097056706E-012
         131  5.307602512951742E-012
         132  3.530546471322847E-012
         133  2.350458501444267E-012
         134  1.564794629639200E-012
         135  1.043210714966203E-012
         136  6.976922700810456E-013
         137  4.690510388354805E-013
         138  3.189486804847626E-013
         139  2.223562449534649E-013
         140  1.630914433423774E-013
         141  1.311496724415387E-013
  ------------ 
  k    rhog_core(k)
       1   0.17448E-02   0.00000E+00
       2  -0.16794E-02  -0.50849E-20
       3  -0.16794E-02  -0.68691E-21
       4  -0.16794E-02   0.31015E-19
       5  -0.16794E-02  -0.61102E-20
       6  -0.16794E-02  -0.22216E-19
       7  -0.16794E-02  -0.20409E-19
       8   0.16164E-02   0.19291E-19
       9   0.16164E-02  -0.25680E-19
      10   0.16164E-02   0.35303E-19
      11   0.16164E-02   0.26782E-19
      12   0.16164E-02   0.63662E-20
      13   0.16164E-02   0.27019E-19
      14   0.16164E-02   0.48043E-19
      15   0.16164E-02   0.53882E-19
      16   0.16164E-02   0.38767E-19
      17   0.16164E-02   0.86263E-20
      18   0.16164E-02   0.44908E-19
      19   0.16164E-02   0.40961E-19
      20  -0.15557E-02  -0.11533E-19
      21  -0.15557E-02  -0.42065E-19
      22  -0.15557E-02  -0.22648E-19
      23  -0.15557E-02  -0.54011E-19
      24  -0.15557E-02  -0.51800E-19
      25  -0.15557E-02  -0.62825E-19
      26  -0.15557E-02  -0.62446E-19
      27  -0.15557E-02  -0.60103E-19
      28   0.14970E-02   0.67567E-19
      29   0.14970E-02   0.57211E-19
      30   0.14970E-02   0.10420E-18
      31   0.14970E-02  -0.29261E-19
      32   0.14970E-02  -0.23248E-19
      33   0.14970E-02  -0.21256E-19
      34  -0.14405E-02  -0.81070E-19
      35  -0.14405E-02  -0.61856E-19
      36  -0.14405E-02  -0.90325E-19
      37  -0.14405E-02  -0.84168E-19
      38  -0.14405E-02  -0.67191E-19
      39  -0.14405E-02  -0.50975E-19
      40  -0.14405E-02   0.31919E-19
      41  -0.14405E-02   0.19168E-19
      42  -0.14405E-02  -0.30100E-19
      43  -0.14405E-02  -0.66355E-19
      44  -0.14405E-02  -0.48242E-19
      45  -0.14405E-02   0.14869E-19
      46  -0.14405E-02  -0.59339E-19
      47  -0.14405E-02  -0.20865E-19
      48  -0.14405E-02   0.46717E-20
      49  -0.14405E-02   0.83954E-20
      50  -0.14405E-02  -0.75036E-19
      51  -0.14405E-02  -0.60589E-19
      52  -0.14405E-02  -0.21467E-20
      53  -0.14405E-02   0.42627E-20
      54  -0.14405E-02   0.60247E-20
      55  -0.14405E-02   0.19263E-21
      56  -0.14405E-02  -0.10297E-19
      57  -0.14405E-02   0.12707E-20
      58   0.13860E-02   0.74647E-19
      59   0.13860E-02   0.88243E-19
      60   0.13860E-02   0.73882E-19
      61   0.13860E-02   0.98048E-19
      62   0.13860E-02   0.66557E-19
      63   0.13860E-02   0.78443E-19
      64   0.13860E-02   0.50188E-19
      65   0.13860E-02   0.16945E-19
      66   0.13860E-02   0.75215E-19
      67   0.13860E-02   0.14571E-19
      68   0.13860E-02  -0.38569E-19
      69   0.13860E-02  -0.25415E-20
      70   0.13860E-02   0.67464E-19
      71   0.13860E-02   0.86442E-19
      72   0.13860E-02   0.97199E-19
      73   0.13860E-02  -0.10519E-22
      74   0.13860E-02   0.78936E-19
      75   0.13860E-02   0.25692E-19
      76   0.13860E-02  -0.24708E-19
      77   0.13860E-02   0.16473E-19
      78   0.13860E-02  -0.27253E-19
      79   0.13860E-02   0.18309E-19
      80   0.13860E-02  -0.24779E-19
      81   0.13860E-02   0.16052E-19
      82   0.12827E-02   0.12629E-18
      83   0.12827E-02   0.70689E-19
      84   0.12827E-02   0.34262E-19
      85   0.12827E-02   0.34804E-19
      86   0.12827E-02   0.81009E-19
      87   0.12827E-02   0.20983E-19
      88   0.12827E-02   0.55489E-19
      89   0.12827E-02  -0.39607E-19
      90   0.12827E-02   0.32552E-19
      91   0.12827E-02   0.47043E-19
      92   0.12827E-02  -0.44563E-19
      93   0.12827E-02  -0.38756E-19
      94  -0.12337E-02   0.94194E-20
      95  -0.12337E-02  -0.11484E-18
      96  -0.12337E-02  -0.13956E-18
      97  -0.12337E-02  -0.10439E-18
      98  -0.12337E-02  -0.54679E-19
      99  -0.12337E-02  -0.10281E-18
     100  -0.12337E-02  -0.57986E-19
 1492913   0.56557E-08  -0.25947E-20
 1492914   0.56557E-08   0.94820E-21
 1492915   0.56557E-08  -0.15841E-20
 1492916   0.56557E-08  -0.58839E-21
 1492917   0.56557E-08  -0.65092E-21
 1492918   0.48804E-09   0.23759E-20
 1492919   0.48804E-09   0.31584E-20
 1492920   0.48804E-09   0.64356E-20
 1492921   0.48804E-09   0.28136E-20
 1492922   0.48804E-09   0.69679E-20
 1492923   0.48804E-09   0.33260E-20
 1492924   0.48804E-09   0.43961E-21
 1492925   0.48804E-09   0.12253E-20
 1492926   0.94358E-10   0.27091E-20
 1492927   0.94358E-10   0.29017E-20
 1492928   0.94358E-10   0.31533E-20
 1492929   0.94358E-10   0.18039E-20
 1492930   0.94358E-10   0.26818E-20
 1492931   0.94358E-10   0.13328E-20
 1492932   0.94358E-10   0.55053E-21
 1492933   0.94358E-10   0.72812E-21
 1492934   0.79298E-08  -0.29295E-20
 1492935   0.79298E-08  -0.18664E-21
 1492936   0.79298E-08  -0.34737E-20
 1492937   0.79298E-08  -0.64740E-21
 1492938   0.79298E-08  -0.28277E-20
 1492939   0.79298E-08   0.14804E-21
 1492940   0.79298E-08  -0.15989E-20
 1492941   0.79298E-08   0.13165E-20
 1492942   0.79298E-08   0.15793E-20
 1492943   0.79298E-08   0.51544E-20
 1492944   0.48804E-09  -0.12829E-20
 1492945   0.48804E-09  -0.64023E-21
 1492946   0.56557E-08  -0.37664E-20
 1492947   0.56557E-08  -0.30429E-20
 1492948   0.56557E-08  -0.39787E-20
 1492949   0.56557E-08  -0.35646E-20
 1492950   0.48804E-09  -0.15446E-20
 1492951   0.48804E-09  -0.48851E-21
 1492952   0.79298E-08   0.14505E-20
 1492953   0.79298E-08   0.14534E-20
 1492954   0.79298E-08   0.35400E-20
 1492955   0.79298E-08   0.35929E-20
 1492956   0.48804E-09  -0.10307E-20
 1492957   0.48804E-09   0.93473E-23
 1492958   0.56557E-08  -0.41324E-20
 1492959   0.56557E-08  -0.37729E-20
 1492960   0.56557E-08  -0.21943E-20
 1492961   0.56557E-08  -0.15187E-20
 1492962   0.48804E-09   0.25065E-21
 1492963   0.48804E-09   0.87267E-21
 1492964   0.79298E-08   0.95705E-21
 1492965   0.79298E-08   0.45860E-20
 1492966   0.90484E-08   0.27945E-20
 1492967   0.90484E-08   0.19902E-20
 1492968   0.90484E-08   0.14090E-20
 1492969   0.90484E-08  -0.66132E-21
 1492970   0.90484E-08   0.41922E-21
 1492971   0.90484E-08  -0.16286E-20
 1492972   0.90484E-08   0.53875E-21
 1492973   0.90484E-08  -0.24226E-21
 1492974  -0.22795E-08  -0.35015E-21
 1492975  -0.22795E-08  -0.58018E-21
 1492976  -0.21773E-08   0.85827E-21
 1492977  -0.21773E-08   0.10583E-20
 1492978  -0.21773E-08   0.58142E-21
 1492979  -0.21773E-08   0.10491E-20
 1492980  -0.22795E-08   0.10161E-20
 1492981  -0.22795E-08   0.18855E-20
 1492982  -0.22795E-08  -0.41188E-21
 1492983  -0.22795E-08   0.36831E-21
 1492984  -0.21773E-08   0.25992E-21
 1492985  -0.21773E-08   0.76005E-21
 1492986  -0.21773E-08   0.84685E-21
 1492987  -0.21773E-08   0.10821E-20
 1492988  -0.22795E-08   0.11069E-20
 1492989  -0.22795E-08   0.78491E-21
 1492990   0.28261E-08  -0.10051E-20
 1492991   0.28261E-08  -0.10905E-20
 1492992   0.28261E-08  -0.60909E-21
 1492993   0.28261E-08   0.14971E-20
 1492994   0.28261E-08  -0.15841E-21
 1492995   0.28261E-08   0.19005E-20
 1492996   0.28261E-08   0.85963E-21
 1492997   0.28261E-08   0.72817E-21
 1492998   0.19648E-07   0.85271E-21
 1492999   0.19648E-07   0.81903E-21
 1493000   0.22888E-07   0.79642E-22
 1493001   0.22888E-07   0.21410E-21
 1493002   0.22888E-07   0.29064E-21
 1493003   0.22888E-07   0.54157E-21
 1493004   0.19648E-07   0.13048E-20
 1493005   0.19648E-07   0.17061E-20
 1493006   0.19648E-07   0.12940E-20
 1493007   0.19648E-07   0.16448E-20
 1493008   0.22888E-07   0.35143E-21
 1493009   0.22888E-07   0.57032E-21
 1493010   0.22888E-07   0.20458E-21
 1493011   0.22888E-07   0.31306E-21
 1493012   0.19648E-07   0.87298E-21
 1493013   0.19648E-07   0.78496E-21
  ------------ 

     Initial potential from superposition of free atoms

     starting charge    5.99982, renormalised to    6.00000

     negative rho (up, down):  1.075E-05 1.054E-05
     Starting wfc are    4 randomized atomic wfcs +    6 random wfc

     total cpu time spent up to now is      100.7 secs

     per-process dynamical memory:  1005.8 Mb

     Self-consistent Calculation

     iteration #  1     ecut=   200.00 Ry     beta=0.70
     Davidson diagonalization with overlap
     ethr =  1.00E-02,  avg # of iterations =  9.8

     Threshold (ethr) on eigenvalues was too large:
     Diagonalizing with lowered threshold

     Davidson diagonalization with overlap
     ethr =  2.65E-05,  avg # of iterations = 15.9

     negative rho (up, down):  1.879E-05 2.874E-05

     total cpu time spent up to now is      702.5 secs

     total energy              =     -24.53609099 Ry
     Harris-Foulkes estimate   =     -24.52926211 Ry
     estimated scf accuracy    <       0.00153519 Ry

     total magnetization       =     1.00 Bohr mag/cell
     absolute magnetization    =     1.00 Bohr mag/cell

     iteration #  2     ecut=   200.00 Ry     beta=0.70
     Davidson diagonalization with overlap
     ethr =  2.56E-05,  avg # of iterations =  2.1

     negative rho (up, down):  8.484E-05 8.074E-05

     total cpu time spent up to now is      919.2 secs

     total energy              =     -24.48795720 Ry
     Harris-Foulkes estimate   =     -24.54669699 Ry
     estimated scf accuracy    <       0.00278000 Ry

     total magnetization       =     2.00 Bohr mag/cell
     absolute magnetization    =     2.00 Bohr mag/cell

     iteration #  3     ecut=   200.00 Ry     beta=0.70
     Davidson diagonalization with overlap
     ethr =  2.56E-05,  avg # of iterations =  3.5

     negative rho (up, down):  3.118E-05 3.166E-05

     total cpu time spent up to now is     1412.7 secs

     total energy              =     -24.52247778 Ry
     Harris-Foulkes estimate   =     -24.55062191 Ry
     estimated scf accuracy    <       0.00208380 Ry

     total magnetization       =    -2.00 Bohr mag/cell
     absolute magnetization    =     2.00 Bohr mag/cell

     iteration #  4     ecut=   200.00 Ry     beta=0.70
     Davidson diagonalization with overlap
     ethr =  2.56E-05,  avg # of iterations =  2.5

     negative rho (up, down):  5.223E-05 4.616E-05

     total cpu time spent up to now is     1605.5 secs

     total energy              =     -24.51269918 Ry
     Harris-Foulkes estimate   =     -24.53019621 Ry
     estimated scf accuracy    <       0.00355606 Ry

     total magnetization       =     1.57 Bohr mag/cell
     absolute magnetization    =     1.57 Bohr mag/cell

     iteration #  5     ecut=   200.00 Ry     beta=0.70
     Davidson diagonalization with overlap
     ethr =  2.56E-05,  avg # of iterations =  1.5

     negative rho (up, down):  1.272E-05 1.315E-05

     total cpu time spent up to now is     1808.5 secs

     total energy              =     -24.49331044 Ry
     Harris-Foulkes estimate   =     -24.54074339 Ry
     estimated scf accuracy    <       0.00387984 Ry

     total magnetization       =    -2.00 Bohr mag/cell
     absolute magnetization    =     2.00 Bohr mag/cell

     Maximum CPU time exceeded

     max_seconds     =    1700.00
     elapsed seconds =    1807.75
     Calculation stopped in scf loop at iteration #     5

     Writing output data file Te.save
