
     Program PWSCF v.6.0 (svn rev. 13079) starts on 16Jul2018 at 18:40: 7 

     This program is part of the open-source Quantum ESPRESSO suite
     for quantum simulation of materials; please cite
         "P. Giannozzi et al., J. Phys.:Condens. Matter 21 395502 (2009);
          URL http://www.quantum-espresso.org", 
     in publications or presentations arising from this work. More details at
     http://www.quantum-espresso.org/quote

     Serial version
     Waiting for input...
     Reading input from standard input
     Message from routine read_cards :
     DEPRECATED: no units specified in CELL_PARAMETERS card

     Current dimensions of program PWSCF are:
     Max number of different atomic species (ntypx) = 10
     Max number of k-points (npk) =  40000
     Max angular momentum in pseudopotentials (lmaxx) =  3

     Atomic positions and unit cell read from directory:
     ./Fe.save/
 
 
     G-vector sticks info
     --------------------
     sticks:   dense  smooth     PW     G-vecs:    dense   smooth      PW
     Sum       15793   15793   4149              1493013  1493013  200597
 


     bravais-lattice index     =            0
     lattice parameter (alat)  =       4.5000  a.u.
     unit-cell volume          =    3906.9844 (a.u.)^3
     number of atoms/cell      =            1
     number of atomic types    =            1
     number of electrons       =         8.00 (up:   6.00, down:   2.00)
     number of Kohn-Sham states=           25
     kinetic-energy cutoff     =     200.0000  Ry
     charge density cutoff     =     800.0000  Ry
     convergence threshold     =      5.0E-06
     mixing beta               =       0.7000
     number of iterations used =            4  local-TF  mixing
     Exchange-correlation      = PZ ( 1  1  0  0 0 0)

     celldm(1)=   4.500000  celldm(2)=   0.000000  celldm(3)=   0.000000
     celldm(4)=   0.000000  celldm(5)=   0.000000  celldm(6)=   0.000000

     crystal axes: (cart. coord. in units of alat)
               a(1) = (   3.500000   0.000000   0.000000 )  
               a(2) = (   0.000000   3.500000   0.000000 )  
               a(3) = (   0.000000   0.000000   3.500000 )  

     reciprocal axes: (cart. coord. in units 2 pi/alat)
               b(1) = (  0.285714  0.000000  0.000000 )  
               b(2) = (  0.000000  0.285714  0.000000 )  
               b(3) = (  0.000000  0.000000  0.285714 )  


     PseudoPot. # 1 for Fe read from file:
     ./Fe.UPF
     MD5 check sum: fca3f4f7b829e6b63190c299d8e7fad7
     Pseudo is Norm-conserving + core correction, Zval =  8.0
     Generated using "atomic" code by A. Dal Corso  v.6.0 svn rev. 13079
     Using radial grid of 1191 points,  2 beta functions with: 
                l(1) =   1
                l(2) =   2

     atomic species   valence    mass     pseudopotential
        Fe             8.00    12.00000     Fe( 1.00)

     Starting magnetic structure 
     atomic species   magnetization
        Fe           0.000

     48 Sym. Ops., with inversion, found



   Cartesian axes

     site n.     atom                  positions (alat units)
         1           Fe  tau(   1) = (   1.7500000   1.7500000   1.7500000  )

     number of k points=     4
                       cart. coord. in units 2pi/alat
        k(    1) = (   0.0000000   0.0000000   0.0000000), wk =   0.1250000
        k(    2) = (   0.0000000   0.0000000  -0.1428571), wk =   0.3750000
        k(    3) = (   0.0000000  -0.1428571  -0.1428571), wk =   0.3750000
        k(    4) = (  -0.1428571  -0.1428571  -0.1428571), wk =   0.1250000

     Dense  grid:  1493013 G-vectors     FFT dimensions: ( 141, 141, 141)

     Estimated max dynamical RAM per process >    2288.50Mb
     Generating pointlists ...
     new r_m :   0.4125 (alat units)  1.8563 (a.u.) for type    1
dfftp%nnr =2803221
    141    141    141    141    141    141
SIZE(dfftp%isind) =   19881
bg(1:3,1):   0.2857  0.0000  0.0000
bg(1:3,2):   0.0000  0.2857  0.0000
bg(1:3,3):   0.0000  0.0000  0.2857
at(1:3,1):   3.5000  0.0000  0.0000
at(1:3,2):   0.0000  3.5000  0.0000
at(1:3,3):   0.0000  0.0000  3.5000
nt =     1 na =    1
tau(:,na) =    1.75000   1.75000   1.75000
  k    rho_core(k)
       1   0.00000E+00
       2   0.00000E+00
       3   0.00000E+00
       4   0.00000E+00
       5   0.00000E+00
       6   0.00000E+00
       7   0.00000E+00
       8   0.00000E+00
       9   0.00000E+00
      10   0.00000E+00
      11   0.00000E+00
      12   0.00000E+00
      13   0.00000E+00
      14   0.00000E+00
      15   0.00000E+00
      16   0.00000E+00
      17   0.00000E+00
      18   0.00000E+00
      19   0.00000E+00
      20   0.00000E+00
      21   0.00000E+00
      22   0.00000E+00
      23   0.00000E+00
      24   0.00000E+00
      25   0.00000E+00
      26   0.00000E+00
      27   0.00000E+00
      28   0.00000E+00
      29   0.00000E+00
      30   0.00000E+00
      31   0.00000E+00
      32   0.00000E+00
      33   0.00000E+00
      34   0.00000E+00
      35   0.00000E+00
      36   0.00000E+00
      37   0.00000E+00
      38   0.00000E+00
      39   0.00000E+00
      40   0.00000E+00
      41   0.00000E+00
      42   0.00000E+00
      43   0.00000E+00
      44   0.00000E+00
      45   0.00000E+00
      46   0.00000E+00
      47   0.00000E+00
      48   0.00000E+00
      49   0.00000E+00
      50   0.00000E+00
      51   0.00000E+00
      52   0.00000E+00
      53   0.00000E+00
      54   0.00000E+00
      55   0.00000E+00
      56   0.00000E+00
      57   0.00000E+00
      58   0.00000E+00
      59   0.00000E+00
      60   0.00000E+00
      61   0.00000E+00
      62   0.00000E+00
      63   0.00000E+00
      64   0.00000E+00
      65   0.00000E+00
      66   0.00000E+00
      67   0.00000E+00
      68   0.00000E+00
      69   0.00000E+00
      70   0.00000E+00
      71   0.00000E+00
      72   0.00000E+00
      73   0.00000E+00
      74   0.00000E+00
      75   0.00000E+00
      76   0.00000E+00
      77   0.00000E+00
      78   0.00000E+00
      79   0.00000E+00
      80   0.00000E+00
      81   0.00000E+00
      82   0.00000E+00
      83   0.00000E+00
      84   0.00000E+00
      85   0.00000E+00
      86   0.00000E+00
      87   0.00000E+00
      88   0.00000E+00
      89   0.00000E+00
      90   0.00000E+00
      91   0.00000E+00
      92   0.00000E+00
      93   0.00000E+00
      94   0.00000E+00
      95   0.00000E+00
      96   0.00000E+00
      97   0.00000E+00
      98   0.00000E+00
      99   0.00000E+00
     100   0.00000E+00
     101   0.00000E+00
     102   0.00000E+00
     103   0.00000E+00
     104   0.00000E+00
     105   0.00000E+00
     106   0.00000E+00
     107   0.00000E+00
     108   0.00000E+00
     109   0.00000E+00
     110   0.00000E+00
     111   0.00000E+00
     112   0.00000E+00
     113   0.00000E+00
     114   0.00000E+00
     115   0.00000E+00
     116   0.00000E+00
     117   0.00000E+00
     118   0.00000E+00
     119   0.00000E+00
     120   0.00000E+00
     121   0.00000E+00
     122   0.00000E+00
     123   0.00000E+00
     124   0.00000E+00
     125   0.00000E+00
     126   0.00000E+00
     127   0.00000E+00
     128   0.00000E+00
     129   0.00000E+00
     130   0.00000E+00
     131   0.00000E+00
     132   0.00000E+00
     133   0.00000E+00
     134   0.00000E+00
     135   0.00000E+00
     136   0.00000E+00
     137   0.00000E+00
     138   0.00000E+00
     139   0.00000E+00
     140   0.00000E+00
     141   0.00000E+00
     142   0.00000E+00
     143   0.00000E+00
     144   0.00000E+00
     145   0.00000E+00
     146   0.00000E+00
     147   0.00000E+00
     148   0.00000E+00
     149   0.00000E+00
     150   0.00000E+00
     151   0.00000E+00
     152   0.00000E+00
     153   0.00000E+00
     154   0.00000E+00
     155   0.00000E+00
     156   0.00000E+00
     157   0.00000E+00
     158   0.00000E+00
     159   0.00000E+00
     160   0.00000E+00
     161   0.00000E+00
     162   0.00000E+00
     163   0.00000E+00
     164   0.00000E+00
     165   0.00000E+00
     166   0.00000E+00
     167   0.00000E+00
     168   0.00000E+00
     169   0.00000E+00
     170   0.00000E+00
     171   0.00000E+00
     172   0.00000E+00
     173   0.00000E+00
     174   0.00000E+00
     175   0.00000E+00
     176   0.00000E+00
     177   0.00000E+00
     178   0.00000E+00
     179   0.00000E+00
     180   0.00000E+00
     181   0.00000E+00
     182   0.00000E+00
     183   0.00000E+00
     184   0.00000E+00
     185   0.00000E+00
     186   0.00000E+00
     187   0.00000E+00
     188   0.00000E+00
     189   0.00000E+00
     190   0.00000E+00
     191   0.00000E+00
     192   0.00000E+00
     193   0.00000E+00
     194   0.00000E+00
     195   0.00000E+00
     196   0.00000E+00
     197   0.00000E+00
     198   0.00000E+00
     199   0.00000E+00
     200   0.00000E+00
     201   0.00000E+00
     202   0.00000E+00
     203   0.00000E+00
     204   0.00000E+00
     205   0.00000E+00
     206   0.00000E+00
     207   0.00000E+00
     208   0.00000E+00
     209   0.00000E+00
     210   0.00000E+00
     211   0.00000E+00
     212   0.00000E+00
     213   0.00000E+00
     214   0.00000E+00
     215   0.00000E+00
     216   0.00000E+00
     217   0.00000E+00
     218   0.00000E+00
     219   0.00000E+00
     220   0.00000E+00
     221   0.00000E+00
     222   0.00000E+00
     223   0.00000E+00
     224   0.00000E+00
     225   0.00000E+00
     226   0.00000E+00
     227   0.00000E+00
     228   0.00000E+00
     229   0.00000E+00
     230   0.00000E+00
     231   0.00000E+00
     232   0.00000E+00
     233   0.00000E+00
     234   0.00000E+00
     235   0.00000E+00
     236   0.00000E+00
     237   0.00000E+00
     238   0.00000E+00
     239   0.00000E+00
     240   0.00000E+00
     241   0.00000E+00
     242   0.00000E+00
     243   0.00000E+00
     244   0.00000E+00
     245   0.00000E+00
     246   0.00000E+00
     247   0.00000E+00
     248   0.00000E+00
     249   0.00000E+00
     250   0.00000E+00
     251   0.00000E+00
     252   0.00000E+00
     253   0.00000E+00
     254   0.00000E+00
     255   0.00000E+00
     256   0.00000E+00
     257   0.00000E+00
     258   0.00000E+00
     259   0.00000E+00
     260   0.00000E+00
     261   0.00000E+00
     262   0.00000E+00
     263   0.00000E+00
     264   0.00000E+00
     265   0.00000E+00
     266   0.00000E+00
     267   0.00000E+00
     268   0.00000E+00
     269   0.00000E+00
     270   0.00000E+00
     271   0.00000E+00
     272   0.00000E+00
     273   0.00000E+00
     274   0.00000E+00
     275   0.00000E+00
     276   0.00000E+00
     277   0.00000E+00
     278   0.00000E+00
     279   0.00000E+00
     280   0.00000E+00
     281   0.00000E+00
     282   0.00000E+00
     283   0.00000E+00
     284   0.00000E+00
     285   0.00000E+00
     286   0.00000E+00
     287   0.00000E+00
     288   0.00000E+00
     289   0.00000E+00
     290   0.00000E+00
     291   0.00000E+00
     292   0.00000E+00
     293   0.00000E+00
     294   0.00000E+00
     295   0.00000E+00
     296   0.00000E+00
     297   0.00000E+00
     298   0.00000E+00
     299   0.00000E+00
     300   0.00000E+00
  ------------ 
  k    averhoc
           1  7.695298767272196E-016
           2  8.604556276266641E-016
           3  1.154473380454305E-015
           4  1.720906454021648E-015
           5  2.692026427152823E-015
           6  4.296015679713225E-015
           7  6.918508333154999E-015
           8  1.118067528504527E-014
           9  1.808239656952386E-014
          10  2.923978869195650E-014
          11  4.736145030955746E-014
          12  7.670203868905178E-014
          13  1.241239782618253E-013
          14  2.011430126682644E-013
          15  3.257733810392627E-013
          16  5.277439162824149E-013
          17  8.554564353638149E-013
          18  1.385862572770082E-012
          19  2.247139429532488E-012
          20  3.641666160805765E-012
          21  5.906539799787324E-012
          22  9.578424545739901E-012
          23  1.553217572334342E-011
          24  2.520936245980671E-011
          25  4.090167272495586E-011
          26  6.637318540824144E-011
          27  1.077449264445242E-010
          28  1.749858086442677E-010
          29  2.842307603143142E-010
          30  4.616732814715648E-010
          31  7.502223263388380E-010
          32  1.219544189975724E-009
          33  1.982656409041460E-009
          34  3.225042469800819E-009
          35  5.246657351982180E-009
          36  8.538757794821849E-009
          37  1.390172198407061E-008
          38  2.264660553231361E-008
          39  3.689773581645405E-008
          40  6.016352398046202E-008
          41  9.811655858686174E-008
          42  1.601330502066173E-007
          43  2.615118090936174E-007
          44  4.271554291531333E-007
          45  6.983912968079244E-007
          46  1.142162284954493E-006
          47  1.869098845046581E-006
          48  3.061103489953165E-006
          49  5.016192865743880E-006
          50  8.225018051773882E-006
          51  1.349106186910576E-005
          52  2.213833413057119E-005
          53  3.634249857011230E-005
          54  5.966263779268902E-005
          55  9.790964945412852E-005
          56  1.605404982089860E-004
          57  2.628791500603498E-004
          58  4.293795576695235E-004
          59  6.987887106109026E-004
          60  1.130761019842709E-003
          61  1.814452767979247E-003
          62  2.875648786803840E-003
          63  4.475817112001635E-003
          64  6.782658648184335E-003
          65  9.781696070923107E-003
          66  1.321031867770113E-002
          67  1.675206489042340E-002
          68  2.008147272554247E-002
          69  2.288979521295128E-002
          70  2.492049446586074E-002
          71  2.598497562694007E-002
          72  2.598497562694007E-002
          73  2.492049446586074E-002
          74  2.288979521295128E-002
          75  2.008147272554247E-002
          76  1.675206489042340E-002
          77  1.321031867770113E-002
          78  9.781696070923107E-003
          79  6.782658648184335E-003
          80  4.475817112001635E-003
          81  2.875648786803840E-003
          82  1.814452767979256E-003
          83  1.130761019842709E-003
          84  6.987887106109026E-004
          85  4.293795576695216E-004
          86  2.628791500603485E-004
          87  1.605404982089868E-004
          88  9.790964945412852E-005
          89  5.966263779268902E-005
          90  3.634249857011218E-005
          91  2.213833413057133E-005
          92  1.349106186910582E-005
          93  8.225018051773882E-006
          94  5.016192865743880E-006
          95  3.061103489953151E-006
          96  1.869098845046590E-006
          97  1.142162284954498E-006
          98  6.983912968079244E-007
          99  4.271554291531333E-007
         100  2.615118090936164E-007
         101  1.601330502066178E-007
         102  9.811655858686186E-008
         103  6.016352398046202E-008
         104  3.689773581645399E-008
         105  2.264660553231347E-008
         106  1.390172198407067E-008
         107  8.538757794821878E-009
         108  5.246657351982180E-009
         109  3.225042469800808E-009
         110  1.982656409041449E-009
         111  1.219544189975726E-009
         112  7.502223263388380E-010
         113  4.616732814715648E-010
         114  2.842307603143142E-010
         115  1.749858086442671E-010
         116  1.077449264445242E-010
         117  6.637318540824144E-011
         118  4.090167272495586E-011
         119  2.520936245980671E-011
         120  1.553217572334336E-011
         121  9.578424545739901E-012
         122  5.906539799787324E-012
         123  3.641666160805765E-012
         124  2.247139429532488E-012
         125  1.385862572770086E-012
         126  8.554564353638149E-013
         127  5.277439162824149E-013
         128  3.257733810392627E-013
         129  2.011430126682638E-013
         130  1.241239782618255E-013
         131  7.670203868905178E-014
         132  4.736145030955746E-014
         133  2.923978869195650E-014
         134  1.808239656952367E-014
         135  1.118067528504530E-014
         136  6.918508333154999E-015
         137  4.296015679713225E-015
         138  2.692026427152823E-015
         139  1.720906454021637E-015
         140  1.154473380454308E-015
         141  8.604556276266641E-016
  ------------ 
  k    rhog_core(k)
       1   0.21632E-02   0.00000E+00
       2  -0.21175E-02  -0.24992E-20
       3  -0.21175E-02   0.14699E-19
       4  -0.21175E-02  -0.20980E-19
       5  -0.21175E-02  -0.51307E-19
       6  -0.21175E-02  -0.58553E-19
       7  -0.21175E-02  -0.58815E-19
       8   0.20728E-02   0.25802E-19
       9   0.20728E-02   0.23010E-19
      10   0.20728E-02   0.65861E-19
      11   0.20728E-02   0.60229E-19
      12   0.20728E-02  -0.22810E-19
      13   0.20728E-02   0.47555E-19
      14   0.20728E-02   0.42252E-19
      15   0.20728E-02   0.12036E-18
      16   0.20728E-02   0.64900E-19
      17   0.20728E-02   0.33574E-19
      18   0.20728E-02   0.11952E-18
      19   0.20728E-02   0.12027E-18
      20  -0.20292E-02   0.19657E-19
      21  -0.20292E-02  -0.76828E-19
      22  -0.20292E-02  -0.57477E-21
      23  -0.20292E-02  -0.13444E-18
      24  -0.20292E-02  -0.22446E-19
      25  -0.20292E-02  -0.11136E-18
      26  -0.20292E-02  -0.89348E-19
      27  -0.20292E-02  -0.17310E-18
      28   0.19866E-02   0.93675E-19
      29   0.19866E-02   0.85756E-19
      30   0.19866E-02   0.98775E-19
      31   0.19866E-02  -0.27630E-19
      32   0.19866E-02  -0.26105E-19
      33   0.19866E-02  -0.25166E-19
      34  -0.19450E-02  -0.84420E-19
      35  -0.19450E-02  -0.12234E-18
      36  -0.19450E-02  -0.15031E-18
      37  -0.19450E-02  -0.14637E-18
      38  -0.19450E-02  -0.74640E-19
      39  -0.19450E-02  -0.71428E-19
      40  -0.19450E-02   0.15776E-19
      41  -0.19450E-02   0.21677E-19
      42  -0.19450E-02  -0.88231E-19
      43  -0.19450E-02  -0.13763E-18
      44  -0.19450E-02  -0.56252E-19
      45  -0.19450E-02   0.14853E-19
      46  -0.19450E-02  -0.12114E-18
      47  -0.19450E-02  -0.45305E-19
      48  -0.19450E-02  -0.13404E-19
      49  -0.19450E-02  -0.34099E-19
      50  -0.19450E-02  -0.12245E-18
      51  -0.19450E-02  -0.11498E-18
      52  -0.19450E-02  -0.42319E-19
      53  -0.19450E-02  -0.27278E-19
      54  -0.19450E-02   0.50629E-19
      55  -0.19450E-02  -0.11498E-19
      56  -0.19450E-02  -0.29161E-19
      57  -0.19450E-02  -0.33020E-19
      58   0.19043E-02   0.75392E-19
      59   0.19043E-02   0.12888E-18
      60   0.19043E-02   0.10097E-18
      61   0.19043E-02   0.19847E-18
      62   0.19043E-02   0.80061E-19
      63   0.19043E-02   0.13153E-18
      64   0.19043E-02   0.10421E-18
      65   0.19043E-02   0.37825E-19
      66   0.19043E-02   0.11741E-18
      67   0.19043E-02   0.65242E-19
      68   0.19043E-02  -0.22256E-19
      69   0.19043E-02   0.27169E-19
      70   0.19043E-02   0.84203E-19
      71   0.19043E-02   0.16638E-18
      72   0.19043E-02   0.10958E-18
      73   0.19043E-02   0.57337E-19
      74   0.19043E-02   0.13468E-18
      75   0.19043E-02   0.11213E-18
      76   0.19043E-02   0.56908E-19
      77   0.19043E-02   0.83143E-19
      78   0.19043E-02  -0.44632E-19
      79   0.19043E-02   0.82912E-20
      80   0.19043E-02   0.60648E-19
      81   0.19043E-02   0.82313E-19
      82   0.18256E-02   0.17395E-18
      83   0.18256E-02   0.19840E-18
      84   0.18256E-02   0.53643E-19
      85   0.18256E-02   0.58115E-19
      86   0.18256E-02   0.20966E-18
      87   0.18256E-02   0.30937E-19
      88   0.18256E-02   0.12541E-18
      89   0.18256E-02  -0.38678E-19
      90   0.18256E-02   0.50529E-19
      91   0.18256E-02   0.13013E-18
      92   0.18256E-02  -0.54837E-19
      93   0.18256E-02  -0.40968E-19
      94  -0.17876E-02   0.26440E-19
      95  -0.17876E-02  -0.14228E-18
      96  -0.17876E-02  -0.22230E-18
      97  -0.17876E-02  -0.15673E-18
      98  -0.17876E-02  -0.42175E-19
      99  -0.17876E-02  -0.22253E-18
     100  -0.17876E-02  -0.94844E-19
 1492913  -0.49647E-07  -0.41329E-21
 1492914  -0.49647E-07   0.30690E-20
 1492915  -0.49647E-07   0.75997E-22
 1492916  -0.49647E-07  -0.25464E-20
 1492917  -0.49647E-07  -0.22289E-20
 1492918  -0.41671E-07  -0.16743E-20
 1492919  -0.41671E-07  -0.14627E-20
 1492920  -0.41671E-07  -0.23265E-21
 1492921  -0.41671E-07  -0.36852E-20
 1492922  -0.41671E-07  -0.20929E-21
 1492923  -0.41671E-07  -0.36526E-20
 1492924  -0.41671E-07  -0.44245E-20
 1492925  -0.41671E-07  -0.42145E-20
 1492926  -0.48971E-07   0.52318E-21
 1492927  -0.48971E-07   0.96011E-21
 1492928  -0.48971E-07   0.21685E-20
 1492929  -0.48971E-07   0.19353E-20
 1492930  -0.48971E-07   0.14830E-20
 1492931  -0.48971E-07   0.12345E-20
 1492932  -0.48971E-07  -0.33831E-21
 1492933  -0.48971E-07   0.78896E-22
 1492934  -0.37768E-07  -0.23061E-20
 1492935  -0.37768E-07   0.16359E-21
 1492936  -0.37768E-07   0.15494E-20
 1492937  -0.37768E-07   0.13931E-20
 1492938  -0.37768E-07   0.27479E-20
 1492939  -0.37768E-07   0.26352E-20
 1492940  -0.37768E-07  -0.33503E-20
 1492941  -0.37768E-07  -0.84283E-21
 1492942  -0.37768E-07  -0.12899E-20
 1492943  -0.37768E-07   0.11435E-20
 1492944  -0.41671E-07   0.18128E-20
 1492945  -0.41671E-07   0.20453E-20
 1492946  -0.49647E-07  -0.19055E-21
 1492947  -0.49647E-07   0.29749E-21
 1492948  -0.49647E-07   0.13102E-20
 1492949  -0.49647E-07   0.22650E-20
 1492950  -0.41671E-07   0.19268E-20
 1492951  -0.41671E-07   0.30485E-20
 1492952  -0.37768E-07   0.71404E-21
 1492953  -0.37768E-07   0.66849E-21
 1492954  -0.37768E-07   0.16977E-20
 1492955  -0.37768E-07   0.16435E-20
 1492956  -0.41671E-07   0.21651E-20
 1492957  -0.41671E-07   0.32876E-20
 1492958  -0.49647E-07   0.95499E-21
 1492959  -0.49647E-07   0.19318E-20
 1492960  -0.49647E-07   0.12058E-20
 1492961  -0.49647E-07   0.17122E-20
 1492962  -0.41671E-07   0.31752E-20
 1492963  -0.41671E-07   0.34048E-20
 1492964  -0.37768E-07  -0.17111E-20
 1492965  -0.37768E-07   0.71680E-21
 1492966  -0.47442E-07   0.47430E-21
 1492967  -0.47442E-07   0.87014E-22
 1492968  -0.47442E-07   0.18076E-20
 1492969  -0.47442E-07   0.89250E-21
 1492970  -0.47442E-07   0.75795E-21
 1492971  -0.47442E-07  -0.12790E-21
 1492972  -0.47442E-07  -0.39093E-21
 1492973  -0.47442E-07  -0.76334E-21
 1492974  -0.28005E-07  -0.22692E-20
 1492975  -0.28005E-07  -0.26911E-20
 1492976  -0.36431E-07  -0.65219E-24
 1492977  -0.36431E-07   0.74569E-21
 1492978  -0.36431E-07   0.48054E-21
 1492979  -0.36431E-07   0.48038E-21
 1492980  -0.28005E-07  -0.15578E-20
 1492981  -0.28005E-07  -0.79883E-21
 1492982  -0.28005E-07  -0.29654E-20
 1492983  -0.28005E-07  -0.21940E-20
 1492984  -0.36431E-07   0.82004E-21
 1492985  -0.36431E-07   0.82548E-21
 1492986  -0.36431E-07  -0.11270E-21
 1492987  -0.36431E-07   0.64412E-21
 1492988  -0.28005E-07  -0.61086E-21
 1492989  -0.28005E-07  -0.10245E-20
 1492990  -0.76976E-07  -0.63439E-21
 1492991  -0.76976E-07  -0.85086E-21
 1492992  -0.76976E-07   0.39780E-22
 1492993  -0.76976E-07   0.66967E-21
 1492994  -0.76976E-07   0.11426E-21
 1492995  -0.76976E-07   0.71512E-21
 1492996  -0.76976E-07   0.25851E-21
 1492997  -0.76976E-07   0.25859E-22
 1492998  -0.23366E-07  -0.12910E-20
 1492999  -0.23366E-07  -0.12348E-20
 1493000  -0.15026E-07  -0.14165E-21
 1493001  -0.15026E-07  -0.13874E-21
 1493002  -0.15026E-07   0.28202E-22
 1493003  -0.15026E-07   0.78467E-22
 1493004  -0.23366E-07  -0.23751E-21
 1493005  -0.23366E-07   0.17569E-22
 1493006  -0.23366E-07  -0.22334E-21
 1493007  -0.23366E-07   0.92452E-23
 1493008  -0.15026E-07   0.74152E-22
 1493009  -0.15026E-07   0.11159E-21
 1493010  -0.15026E-07  -0.65432E-22
 1493011  -0.15026E-07  -0.74931E-22
 1493012  -0.23366E-07  -0.14103E-20
 1493013  -0.23366E-07  -0.13768E-20
  ------------ 

     The initial density is read from file :
     ./Fe.save/charge-density.dat

     Starting wfc from file
     Calculation restarted from scf iteration #    10

     total cpu time spent up to now is       67.2 secs

     per-process dynamical memory:   824.8 Mb

     Self-consistent Calculation

     iteration # 10     ecut=   200.00 Ry     beta=0.70
     Davidson diagonalization with overlap
     ethr =  3.97E-04,  avg # of iterations =  2.0

     total cpu time spent up to now is      343.1 secs

     total energy              =     -56.83355982 Ry
     Harris-Foulkes estimate   =     -56.83806518 Ry
     estimated scf accuracy    <       0.03802487 Ry

     total magnetization       =     4.00 Bohr mag/cell
     absolute magnetization    =     4.07 Bohr mag/cell

     iteration # 11     ecut=   200.00 Ry     beta=0.70
     Davidson diagonalization with overlap
     ethr =  3.97E-04,  avg # of iterations =  1.0

     negative rho (up, down):  8.782E-06 4.224E-06

     total cpu time spent up to now is     1041.7 secs

     total energy              =     -56.83231650 Ry
     Harris-Foulkes estimate   =     -56.83416775 Ry
     estimated scf accuracy    <       0.02047877 Ry

     total magnetization       =     4.00 Bohr mag/cell
     absolute magnetization    =     4.07 Bohr mag/cell

     iteration # 12     ecut=   200.00 Ry     beta=0.70
     Davidson diagonalization with overlap
     ethr =  2.56E-04,  avg # of iterations =  1.0

     negative rho (up, down):  3.182E-07 2.481E-08

     total cpu time spent up to now is     1569.6 secs

     total energy              =     -56.83172123 Ry
     Harris-Foulkes estimate   =     -56.83450992 Ry
     estimated scf accuracy    <       0.23285682 Ry

     total magnetization       =     4.00 Bohr mag/cell
     absolute magnetization    =     4.00 Bohr mag/cell

     iteration # 13     ecut=   200.00 Ry     beta=0.70
     Davidson diagonalization with overlap

     Maximum CPU time exceeded

     max_seconds     =    1700.00
     elapsed seconds =    1704.43
     Calculation stopped in k-point loop, point #     7
     Calculation stopped in scf loop at iteration #    12

     Writing output data file Fe.save
 
     init_run     :     21.02s CPU     64.52s WALL (       1 calls)
     electrons    :   1560.47s CPU   1642.34s WALL (       1 calls)

     Called by init_run:
     wfcinit      :      0.00s CPU      0.00s WALL (       1 calls)
     potinit      :      1.15s CPU      1.93s WALL (       1 calls)

     Called by electrons:
     c_bands      :    620.01s CPU    646.24s WALL (       4 calls)
     sum_band     :    124.64s CPU    184.59s WALL (       3 calls)
     v_of_rho     :      2.23s CPU      2.61s WALL (       4 calls)
     mix_rho      :    814.14s CPU    817.55s WALL (       3 calls)

     Called by c_bands:
     init_us_2    :      1.41s CPU      2.68s WALL (      55 calls)
     cegterg      :    616.77s CPU    626.67s WALL (      31 calls)

     Called by sum_band:

     Called by *egterg:
     h_psi        :    600.14s CPU    600.21s WALL (      70 calls)
     g_psi        :      0.92s CPU      0.92s WALL (      39 calls)
     cdiaghg      :      0.04s CPU      0.19s WALL (      70 calls)

     Called by h_psi:
     h_psi:pot    :    598.71s CPU    598.81s WALL (      70 calls)
     h_psi:calbec :      1.13s CPU      1.14s WALL (      70 calls)
     vloc_psi     :    595.44s CPU    595.51s WALL (      70 calls)
     add_vuspsi   :      2.15s CPU      2.16s WALL (      70 calls)

     General routines
     calbec       :      1.13s CPU      1.14s WALL (      70 calls)
     fft          :      4.66s CPU      4.76s WALL (      26 calls)
     ffts         :    577.30s CPU    577.33s WALL (    3217 calls)
     fftw         :    682.80s CPU    682.93s WALL (    3806 calls)
     davcio       :      0.07s CPU     12.84s WALL (      34 calls)
 
 
     PWSCF        : 26m21.82s CPU    28m37.92s WALL

 
   This run was terminated on:  19: 8:44  16Jul2018            

=------------------------------------------------------------------------------=
   JOB DONE.
=------------------------------------------------------------------------------=
