
     Program PWSCF v.6.2 starts on 27Jul2018 at 21:14: 6 

     This program is part of the open-source Quantum ESPRESSO suite
     for quantum simulation of materials; please cite
         "P. Giannozzi et al., J. Phys.:Condens. Matter 21 395502 (2009);
         "P. Giannozzi et al., J. Phys.:Condens. Matter 29 465901 (2017);
          URL http://www.quantum-espresso.org", 
     in publications or presentations arising from this work. More details at
     http://www.quantum-espresso.org/quote

     Parallel version (MPI & OpenMP), running on      64 processor cores
     Number of MPI processes:                32
     Threads/MPI process:                     2

     MPI processes distributed on     1 nodes
     R & G space division:  proc/nbgrp/npool/nimage =      32
     Waiting for input...
     Reading input from standard input

     Current dimensions of program PWSCF are:
     Max number of different atomic species (ntypx) = 20
     Max number of k-points (npk) =  40000
     Max angular momentum in pseudopotentials (lmaxx) =  3

     Subspace diagonalization in iterative solution of the eigenvalue problem:
     one sub-group per band group will be used
     scalapack distributed-memory algorithm (size of sub-group:  4*  4 procs)

 
     Parallelization info
     --------------------
     sticks:   dense  smooth     PW     G-vecs:    dense   smooth      PW
     Min          50      50     14                 9030     9030    1298
     Max          51      51     15                 9065     9065    1318
     Sum        1617    1617    451               289415   289415   41917
 


     bravais-lattice index     =            0
     lattice parameter (alat)  =       6.2737  a.u.
     unit-cell volume          =    2142.8622 (a.u.)^3
     number of atoms/cell      =            4
     number of atomic types    =            1
     number of electrons       =        20.00
     number of Kohn-Sham states=           30
     kinetic-energy cutoff     =     100.0000  Ry
     charge density cutoff     =     400.0000  Ry
     convergence threshold     =      1.0E-09
     mixing beta               =       0.7000
     number of iterations used =            8  plain     mixing
     Exchange-correlation      = PZ ( 1  1  0  0 0 0)

     celldm(1)=   6.273702  celldm(2)=   0.000000  celldm(3)=   0.000000
     celldm(4)=   0.000000  celldm(5)=   0.000000  celldm(6)=   0.000000

     crystal axes: (cart. coord. in units of alat)
               a(1) = (   1.000000   0.000000   0.000000 )  
               a(2) = (   0.000000   1.299858   0.000000 )  
               a(3) = (   0.000000   0.000000   6.676157 )  

     reciprocal axes: (cart. coord. in units 2 pi/alat)
               b(1) = (  1.000000  0.000000  0.000000 )  
               b(2) = (  0.000000  0.769315  0.000000 )  
               b(3) = (  0.000000  0.000000  0.149787 )  


     PseudoPot. # 1 for P  read from file:
     ./P.UPF
     MD5 check sum: 9c0cb53e003fac77095ae97602e1c3af
     Pseudo is Norm-conserving, Zval =  5.0
     Generated using "atomic" code by A. Dal Corso v.6.0 svn rev. 13079
     Using radial grid of 1147 points,  2 beta functions with: 
                l(1) =   0
                l(2) =   1

     atomic species   valence    mass     pseudopotential
       P               5.00    30.97400     P ( 1.00)

      4 Sym. Ops. (no inversion) found ( 2 have fractional translation)


                                    s                        frac. trans.

      isym =  1     identity                                     

 cryst.   s( 1) = (     1          0          0      )
                  (     0          1          0      )
                  (     0          0          1      )

 cart.    s( 1) = (  1.0000000  0.0000000  0.0000000 )
                  (  0.0000000  1.0000000  0.0000000 )
                  (  0.0000000  0.0000000  1.0000000 )


      isym =  2     180 deg rotation - cart. axis [0,0,1]        

 cryst.   s( 2) = (    -1          0          0      )    f =(  0.5000000 )
                  (     0         -1          0      )       (  0.4999999 )
                  (     0          0          1      )       (  0.0000000 )

 cart.    s( 2) = ( -1.0000000  0.0000000  0.0000000 )    f =(  0.5000000 )
                  (  0.0000000 -1.0000000  0.0000000 )       (  0.6499291 )
                  (  0.0000000  0.0000000  1.0000000 )       (  0.0000000 )


      isym =  3     inv. 180 deg rotation - cart. axis [0,1,0]   

 cryst.   s( 3) = (     1          0          0      )    f =(  0.5000000 )
                  (     0         -1          0      )       (  0.4999999 )
                  (     0          0          1      )       (  0.0000000 )

 cart.    s( 3) = (  1.0000000  0.0000000  0.0000000 )    f =(  0.5000000 )
                  (  0.0000000 -1.0000000  0.0000000 )       (  0.6499291 )
                  (  0.0000000  0.0000000  1.0000000 )       (  0.0000000 )


      isym =  4     inv. 180 deg rotation - cart. axis [1,0,0]   

 cryst.   s( 4) = (    -1          0          0      )
                  (     0          1          0      )
                  (     0          0          1      )

 cart.    s( 4) = ( -1.0000000  0.0000000  0.0000000 )
                  (  0.0000000  1.0000000  0.0000000 )
                  (  0.0000000  0.0000000  1.0000000 )


   Cartesian axes

     site n.     atom                  positions (alat units)
         1          P    tau(   1) = (   0.5000000   0.5432110   1.2355230  )
         2          P    tau(   2) = (   0.5000000   0.7566476   1.8874023  )
         3          P    tau(   3) = (   0.0000000   1.1931401   1.8874023  )
         4          P    tau(   4) = (   0.0000000   0.1067183   1.2355230  )

   Crystallographic axes

     site n.     atom                  positions (cryst. coord.)
         1          P    tau(   1) = (  0.5000000  0.4179001  0.1850650  )
         2          P    tau(   2) = (  0.5000000  0.5821000  0.2827079  )
         3          P    tau(   3) = (  0.0000000  0.9179000  0.2827079  )
         4          P    tau(   4) = (  0.0000000  0.0821000  0.1850650  )

     number of k points=    36  gaussian smearing, width (Ry)=  0.0010
                       cart. coord. in units 2pi/alat
        k(    1) = (   0.5000000   0.0000000   0.0000000), wk =   0.0555556
        k(    2) = (   0.4750000   0.0000000   0.0000000), wk =   0.0555556
        k(    3) = (   0.4500000   0.0000000   0.0000000), wk =   0.0555556
        k(    4) = (   0.4250000   0.0000000   0.0000000), wk =   0.0555556
        k(    5) = (   0.4000000   0.0000000   0.0000000), wk =   0.0555556
        k(    6) = (   0.3750000   0.0000000   0.0000000), wk =   0.0555556
        k(    7) = (   0.3500000   0.0000000   0.0000000), wk =   0.0555556
        k(    8) = (   0.3250000   0.0000000   0.0000000), wk =   0.0555556
        k(    9) = (   0.3000000   0.0000000   0.0000000), wk =   0.0555556
        k(   10) = (   0.2750000   0.0000000   0.0000000), wk =   0.0555556
        k(   11) = (   0.2500000   0.0000000   0.0000000), wk =   0.0555556
        k(   12) = (   0.2250000   0.0000000   0.0000000), wk =   0.0555556
        k(   13) = (   0.2000000   0.0000000   0.0000000), wk =   0.0555556
        k(   14) = (   0.1750000   0.0000000   0.0000000), wk =   0.0555556
        k(   15) = (   0.1500000   0.0000000   0.0000000), wk =   0.0555556
        k(   16) = (   0.1250000   0.0000000   0.0000000), wk =   0.0555556
        k(   17) = (   0.1000000   0.0000000   0.0000000), wk =   0.0555556
        k(   18) = (   0.0750000   0.0000000   0.0000000), wk =   0.0555556
        k(   19) = (   0.0500000   0.0000000   0.0000000), wk =   0.0555556
        k(   20) = (   0.0250000   0.0000000   0.0000000), wk =   0.0555556
        k(   21) = (   0.0000000   0.0000000   0.0000000), wk =   0.0555556
        k(   22) = (   0.0000000   0.0256436   0.0000000), wk =   0.0555556
        k(   23) = (   0.0000000   0.0512879   0.0000000), wk =   0.0555556
        k(   24) = (   0.0000000   0.0769315   0.0000000), wk =   0.0555556
        k(   25) = (   0.0000000   0.1025750   0.0000000), wk =   0.0555556
        k(   26) = (   0.0000000   0.1282193   0.0000000), wk =   0.0555556
        k(   27) = (   0.0000000   0.1538629   0.0000000), wk =   0.0555556
        k(   28) = (   0.0000000   0.1795065   0.0000000), wk =   0.0555556
        k(   29) = (   0.0000000   0.2051508   0.0000000), wk =   0.0555556
        k(   30) = (   0.0000000   0.2307944   0.0000000), wk =   0.0555556
        k(   31) = (   0.0000000   0.2564379   0.0000000), wk =   0.0555556
        k(   32) = (   0.0000000   0.2820823   0.0000000), wk =   0.0555556
        k(   33) = (   0.0000000   0.3077258   0.0000000), wk =   0.0555556
        k(   34) = (   0.0000000   0.3333694   0.0000000), wk =   0.0555556
        k(   35) = (   0.0000000   0.3590137   0.0000000), wk =   0.0555556
        k(   36) = (   0.0000000   0.3846573   0.0000000), wk =   0.0555556

                       cryst. coord.
        k(    1) = (   0.5000000   0.0000000   0.0000000), wk =   0.0555556
        k(    2) = (   0.4750000   0.0000000   0.0000000), wk =   0.0555556
        k(    3) = (   0.4500000   0.0000000   0.0000000), wk =   0.0555556
        k(    4) = (   0.4250000   0.0000000   0.0000000), wk =   0.0555556
        k(    5) = (   0.4000000   0.0000000   0.0000000), wk =   0.0555556
        k(    6) = (   0.3750000   0.0000000   0.0000000), wk =   0.0555556
        k(    7) = (   0.3500000   0.0000000   0.0000000), wk =   0.0555556
        k(    8) = (   0.3250000   0.0000000   0.0000000), wk =   0.0555556
        k(    9) = (   0.3000000   0.0000000   0.0000000), wk =   0.0555556
        k(   10) = (   0.2750000   0.0000000   0.0000000), wk =   0.0555556
        k(   11) = (   0.2500000   0.0000000   0.0000000), wk =   0.0555556
        k(   12) = (   0.2250000   0.0000000   0.0000000), wk =   0.0555556
        k(   13) = (   0.2000000   0.0000000   0.0000000), wk =   0.0555556
        k(   14) = (   0.1750000   0.0000000   0.0000000), wk =   0.0555556
        k(   15) = (   0.1500000   0.0000000   0.0000000), wk =   0.0555556
        k(   16) = (   0.1250000   0.0000000   0.0000000), wk =   0.0555556
        k(   17) = (   0.1000000   0.0000000   0.0000000), wk =   0.0555556
        k(   18) = (   0.0750000   0.0000000   0.0000000), wk =   0.0555556
        k(   19) = (   0.0500000   0.0000000   0.0000000), wk =   0.0555556
        k(   20) = (   0.0250000   0.0000000   0.0000000), wk =   0.0555556
        k(   21) = (   0.0000000   0.0000000   0.0000000), wk =   0.0555556
        k(   22) = (   0.0000000   0.0333330   0.0000000), wk =   0.0555556
        k(   23) = (   0.0000000   0.0666670   0.0000000), wk =   0.0555556
        k(   24) = (   0.0000000   0.1000000   0.0000000), wk =   0.0555556
        k(   25) = (   0.0000000   0.1333330   0.0000000), wk =   0.0555556
        k(   26) = (   0.0000000   0.1666670   0.0000000), wk =   0.0555556
        k(   27) = (   0.0000000   0.2000000   0.0000000), wk =   0.0555556
        k(   28) = (   0.0000000   0.2333330   0.0000000), wk =   0.0555556
        k(   29) = (   0.0000000   0.2666670   0.0000000), wk =   0.0555556
        k(   30) = (   0.0000000   0.3000000   0.0000000), wk =   0.0555556
        k(   31) = (   0.0000000   0.3333330   0.0000000), wk =   0.0555556
        k(   32) = (   0.0000000   0.3666670   0.0000000), wk =   0.0555556
        k(   33) = (   0.0000000   0.4000000   0.0000000), wk =   0.0555556
        k(   34) = (   0.0000000   0.4333330   0.0000000), wk =   0.0555556
        k(   35) = (   0.0000000   0.4666670   0.0000000), wk =   0.0555556
        k(   36) = (   0.0000000   0.5000000   0.0000000), wk =   0.0555556

     Dense  grid:   289415 G-vectors     FFT dimensions: (  40,  54, 270)

     Dynamical RAM for                 wfc:       0.52 MB

     Dynamical RAM for     wfc (w. buffer):      19.14 MB

     Dynamical RAM for           str. fact:       0.14 MB

     Dynamical RAM for           local pot:       0.00 MB

     Dynamical RAM for          nlocal pot:       0.28 MB

     Dynamical RAM for                qrad:       0.14 MB

     Dynamical RAM for          rho,v,vnew:       0.86 MB

     Dynamical RAM for               rhoin:       0.29 MB

     Dynamical RAM for            rho*nmix:       2.21 MB

     Dynamical RAM for           G-vectors:       0.59 MB

     Dynamical RAM for          h,s,v(r/c):       0.04 MB

     Dynamical RAM for          <psi|beta>:       0.01 MB

     Dynamical RAM for                 psi:       2.07 MB

     Dynamical RAM for                hpsi:       2.07 MB

     Dynamical RAM for      wfcinit/wfcrot:       1.06 MB

     Estimated static dynamical RAM per process >      24.65 MB

     Estimated max dynamical RAM per process >      28.84 MB

     Estimated total dynamical RAM >     922.82 MB

     Initial potential from superposition of free atoms

     starting charge   19.99943, renormalised to   20.00000

     negative rho (up, down):  3.725E-06 0.000E+00
     Starting wfc are   16 randomized atomic wfcs +   14 random wfc

     total cpu time spent up to now is        1.6 secs

     Self-consistent Calculation

     iteration #  1     ecut=   100.00 Ry     beta= 0.70
     Davidson diagonalization with overlap
     ethr =  1.00E-02,  avg # of iterations =  8.4

     Threshold (ethr) on eigenvalues was too large:
     Diagonalizing with lowered threshold

     Davidson diagonalization with overlap
     ethr =  5.17E-04,  avg # of iterations =  1.4

     negative rho (up, down):  1.502E-07 0.000E+00

     total cpu time spent up to now is       12.7 secs

     total energy              =     -52.74539549 Ry
     Harris-Foulkes estimate   =     -52.78477271 Ry
     estimated scf accuracy    <       0.10240693 Ry

     iteration #  2     ecut=   100.00 Ry     beta= 0.70
     Davidson diagonalization with overlap
     ethr =  5.12E-04,  avg # of iterations =  3.3

     total cpu time spent up to now is       16.3 secs

     total energy              =     -52.74803921 Ry
     Harris-Foulkes estimate   =     -52.76055999 Ry
     estimated scf accuracy    <       0.02011959 Ry

     iteration #  3     ecut=   100.00 Ry     beta= 0.70
     Davidson diagonalization with overlap
     ethr =  1.01E-04,  avg # of iterations =  3.2

     total cpu time spent up to now is       21.0 secs

     total energy              =     -52.75236692 Ry
     Harris-Foulkes estimate   =     -52.75950511 Ry
     estimated scf accuracy    <       0.01533261 Ry

     iteration #  4     ecut=   100.00 Ry     beta= 0.70
     Davidson diagonalization with overlap
     ethr =  7.67E-05,  avg # of iterations =  2.6

     total cpu time spent up to now is       24.3 secs

     total energy              =     -52.75544997 Ry
     Harris-Foulkes estimate   =     -52.75550003 Ry
     estimated scf accuracy    <       0.00011899 Ry

     iteration #  5     ecut=   100.00 Ry     beta= 0.70
     Davidson diagonalization with overlap
     ethr =  5.95E-07,  avg # of iterations =  5.3

     total cpu time spent up to now is       29.4 secs

     total energy              =     -52.75548646 Ry
     Harris-Foulkes estimate   =     -52.75548896 Ry
     estimated scf accuracy    <       0.00000518 Ry

     iteration #  6     ecut=   100.00 Ry     beta= 0.70
     Davidson diagonalization with overlap
     ethr =  2.59E-08,  avg # of iterations =  1.9

     total cpu time spent up to now is       32.5 secs

     total energy              =     -52.75548541 Ry
     Harris-Foulkes estimate   =     -52.75548935 Ry
     estimated scf accuracy    <       0.00001309 Ry

     iteration #  7     ecut=   100.00 Ry     beta= 0.70
     Davidson diagonalization with overlap
     ethr =  2.59E-08,  avg # of iterations =  1.0

     total cpu time spent up to now is       35.2 secs

     total energy              =     -52.75548758 Ry
     Harris-Foulkes estimate   =     -52.75548798 Ry
     estimated scf accuracy    <       0.00000171 Ry

     iteration #  8     ecut=   100.00 Ry     beta= 0.70
     Davidson diagonalization with overlap
     ethr =  8.54E-09,  avg # of iterations =  1.0

     total cpu time spent up to now is       38.0 secs

     total energy              =     -52.75548777 Ry
     Harris-Foulkes estimate   =     -52.75548777 Ry
     estimated scf accuracy    <          1.8E-09 Ry

     iteration #  9     ecut=   100.00 Ry     beta= 0.70
     Davidson diagonalization with overlap
     ethr =  9.01E-12,  avg # of iterations =  3.0

     total cpu time spent up to now is       41.9 secs

     End of self-consistent calculation

          k = 0.5000 0.0000 0.0000 ( 36140 PWs)   bands (ev):

   -14.4617 -14.4617 -11.8105 -11.8105  -6.7769  -6.7769  -4.8101  -4.8101
    -4.2550  -4.2550  -0.8717  -0.8717  -0.3098  -0.3098   1.0278   1.0278
     4.5082   4.5082   5.4926   5.4926   6.0220   6.0220   6.6072   6.6072
     6.8467   6.8467   7.9401   7.9401   7.9410   7.9410

     occupation numbers 
     1.0000   1.0000   1.0000   1.0000   1.0000   1.0000   1.0000   1.0000
     1.0000   1.0000   0.0000   0.0000   0.0000   0.0000   0.0000   0.0000
     0.0000   0.0000   0.0000   0.0000   0.0000   0.0000   0.0000   0.0000
     0.0000   0.0000   0.0000   0.0000   0.0000   0.0000

          k = 0.4750 0.0000 0.0000 ( 36170 PWs)   bands (ev):

   -14.7268 -14.1879 -12.0972 -11.5110  -6.8455  -6.7364  -4.9064  -4.7408
    -4.3131  -4.1560  -0.8903  -0.8026  -0.5270  -0.0734   0.7892   1.2761
     4.4519   4.5179   5.1748   5.8257   5.8365   6.2555   6.3326   6.5283
     6.9229   7.1762   7.6653   7.6941   8.1609   8.2069

     occupation numbers 
     1.0000   1.0000   1.0000   1.0000   1.0000   1.0000   1.0000   1.0000
     1.0000   1.0000   0.0000   0.0000   0.0000   0.0000   0.0000   0.0000
     0.0000   0.0000   0.0000   0.0000   0.0000   0.0000   0.0000   0.0000
     0.0000   0.0000   0.0000   0.0000   0.0000   0.0000

          k = 0.4500 0.0000 0.0000 ( 36166 PWs)   bands (ev):

   -14.9819 -13.9065 -12.3709 -11.1994  -6.9333  -6.7299  -5.0247  -4.7016
    -4.3268  -4.0231  -0.8536  -0.7214  -0.6916   0.1786   0.5647   1.5307
     4.3781   4.4569   4.8726   5.6726   6.1443   6.1732   6.2236   6.5231
     7.2582   7.4054   7.4383   7.5109   8.3387   8.3760

     occupation numbers 
     1.0000   1.0000   1.0000   1.0000   1.0000   1.0000   1.0000   1.0000
     1.0000   1.0000   0.0000   0.0000   0.0000   0.0000   0.0000   0.0000
     0.0000   0.0000   0.0000   0.0000   0.0000   0.0000   0.0000   0.0000
     0.0000   0.0000   0.0000   0.0000   0.0000   0.0000

          k = 0.4250 0.0000 0.0000 ( 36172 PWs)   bands (ev):

   -15.2262 -13.6193 -12.6312 -10.8763  -7.0310  -6.7586  -5.1588  -4.6926
    -4.2988  -3.8647  -0.8882  -0.7604  -0.5537   0.3641   0.4433   1.7885
     4.3084   4.3278   4.5863   5.4718   5.9337   6.0842   6.5340   6.7889
     7.1796   7.1829   7.5810   7.8340   8.2454   8.4728

     occupation numbers 
     1.0000   1.0000   1.0000   1.0000   1.0000   1.0000   1.0000   1.0000
     1.0000   1.0000   0.0000   0.0000   0.0000   0.0000   0.0000   0.0000
     0.0000   0.0000   0.0000   0.0000   0.0000   0.0000   0.0000   0.0000
     0.0000   0.0000   0.0000   0.0000   0.0000   0.0000

          k = 0.4000 0.0000 0.0000 ( 36146 PWs)   bands (ev):

   -15.4591 -13.3283 -12.8777 -10.5424  -7.1299  -6.8183  -5.3032  -4.7108
    -4.2380  -3.6889  -1.0218  -0.6130  -0.4231   0.2162   0.7177   2.0462
     4.1546   4.2575   4.3161   5.2375   5.6594   6.0936   6.9046   6.9137
     6.9336   7.0163   7.7052   8.0960   8.1869   8.6045

     occupation numbers 
     1.0000   1.0000   1.0000   1.0000   1.0000   1.0000   1.0000   1.0000
     1.0000   1.0000   0.0000   0.0000   0.0000   0.0000   0.0000   0.0000
     0.0000   0.0000   0.0000   0.0000   0.0000   0.0000   0.0000   0.0000
     0.0000   0.0000   0.0000   0.0000   0.0000   0.0000

          k = 0.3750 0.0000 0.0000 ( 36130 PWs)   bands (ev):

   -15.6798 -13.1102 -13.0359 -10.1987  -7.2224  -6.9019  -5.4528  -4.7510
    -4.1578  -3.5028  -1.1156  -0.4162  -0.3836   0.1996   0.9987   2.2996
     3.9612   4.0620   4.2353   4.9976   5.4011   6.0724   6.5927   6.6940
     6.9554   7.2729   7.8343   8.2304   8.5134   8.5150

     occupation numbers 
     1.0000   1.0000   1.0000   1.0000   1.0000   1.0000   1.0000   1.0000
     1.0000   1.0000   0.0000   0.0000   0.0000   0.0000   0.0000   0.0000
     0.0000   0.0000   0.0000   0.0000   0.0000   0.0000   0.0000   0.0000
     0.0000   0.0000   0.0000   0.0000   0.0000   0.0000

          k = 0.3500 0.0000 0.0000 ( 36192 PWs)   bands (ev):

   -15.8879 -13.3285 -12.7453  -9.8466  -7.3016  -7.0016  -5.6034  -4.8066
    -4.0733  -3.3127  -1.1623  -0.4748  -0.1763   0.3499   1.2833   2.5433
     3.7627   3.8244   4.2497   4.7649   5.1590   5.9743   6.0121   6.4661
     6.9965   7.5421   8.1522   8.1550   8.2739   8.3192

     occupation numbers 
     1.0000   1.0000   1.0000   1.0000   1.0000   1.0000   1.0000   1.0000
     1.0000   1.0000   0.0000   0.0000   0.0000   0.0000   0.0000   0.0000
     0.0000   0.0000   0.0000   0.0000   0.0000   0.0000   0.0000   0.0000
     0.0000   0.0000   0.0000   0.0000   0.0000   0.0000

          k = 0.3250 0.0000 0.0000 ( 36192 PWs)   bands (ev):

   -16.0830 -13.5324 -12.4603  -9.4876  -7.3616  -7.1105  -5.7518  -4.8708
    -3.9982  -3.1243  -1.1550  -0.6197   0.1004   0.5859   1.5683   2.7700
     3.5676   3.6033   4.3058   4.5443   4.9333   5.3731   5.8250   6.2513
     7.0651   7.2304   8.1294   8.2252   8.2980   8.3181

     occupation numbers 
     1.0000   1.0000   1.0000   1.0000   1.0000   1.0000   1.0000   1.0000
     1.0000   1.0000   0.0000   0.0000   0.0000   0.0000   0.0000   0.0000
     0.0000   0.0000   0.0000   0.0000   0.0000   0.0000   0.0000   0.0000
     0.0000   0.0000   0.0000   0.0000   0.0000   0.0000

          k = 0.3000 0.0000 0.0000 ( 36144 PWs)   bands (ev):

   -16.2648 -13.7217 -12.1853  -9.1241  -7.3963  -7.2230  -5.8952  -4.9371
    -3.9427  -2.9425  -1.0897  -0.7740   0.4073   0.8600   1.8502   2.9695
     3.3807   3.3990   4.3381   4.3971   4.7242   4.7370   5.6578   6.0505
     6.6612   7.0787   7.9473   8.2945   8.3097   8.5613

     occupation numbers 
     1.0000   1.0000   1.0000   1.0000   1.0000   1.0000   1.0000   1.0000
     1.0000   1.0000   0.0000   0.0000   0.0000   0.0000   0.0000   0.0000
     0.0000   0.0000   0.0000   0.0000   0.0000   0.0000   0.0000   0.0000
     0.0000   0.0000   0.0000   0.0000   0.0000   0.0000

          k = 0.2750 0.0000 0.0000 ( 36152 PWs)   bands (ev):

   -16.4329 -13.8963 -11.9255  -8.7592  -7.4002  -7.3350  -6.0318  -4.9993
    -3.9116  -2.7717  -0.9666  -0.9242   0.7377   1.1548   2.1226   3.1264
     3.2049   3.2118   4.0634   4.1471   4.5317   4.5885   5.4900   5.8642
     6.1009   7.0089   7.7749   8.2366   8.3378   8.6058

     occupation numbers 
     1.0000   1.0000   1.0000   1.0000   1.0000   1.0000   1.0000   1.0000
     1.0000   1.0000   0.0000   0.0000   0.0000   0.0000   0.0000   0.0000
     0.0000   0.0000   0.0000   0.0000   0.0000   0.0000   0.0000   0.0000
     0.0000   0.0000   0.0000   0.0000   0.0000   0.0000

          k = 0.2500 0.0000 0.0000 ( 36142 PWs)   bands (ev):

   -16.5870 -14.0562 -11.6861  -8.3972  -7.4433  -7.3683  -6.1599  -5.0510
    -3.9043  -2.6154  -1.0653  -0.7903   1.0832   1.4618   2.3615   3.0419
     3.0424   3.2175   3.4795   3.9720   4.3561   4.7861   5.3292   5.6018
     5.6928   6.8781   7.6137   8.0628   8.4091   8.8561

     occupation numbers 
     1.0000   1.0000   1.0000   1.0000   1.0000   1.0000   1.0000   1.0000
     1.0000   1.0000   0.0000   0.0000   0.0000   0.0000   0.0000   0.0000
     0.0000   0.0000   0.0000   0.0000   0.0000   0.0000   0.0000   0.0000
     0.0000   0.0000   0.0000   0.0000   0.0000   0.0000

          k = 0.2250 0.0000 0.0000 ( 36138 PWs)   bands (ev):

   -16.7270 -14.2011 -11.4721  -8.0442  -7.5456  -7.2966  -6.2784  -5.0854
    -3.9165  -2.4763  -1.1952  -0.5694   1.4297   1.7737   2.4041   2.8927
     2.8927   3.1071   3.2134   3.8131   4.1974   5.0361   5.1790   5.2088
     5.5364   6.7124   7.4646   7.8866   8.5157   9.1766

     occupation numbers 
     1.0000   1.0000   1.0000   1.0000   1.0000   1.0000   1.0000   1.0000
     1.0000   1.0000   0.0000   0.0000   0.0000   0.0000   0.0000   0.0000
     0.0000   0.0000   0.0000   0.0000   0.0000   0.0000   0.0000   0.0000
     0.0000   0.0000   0.0000   0.0000   0.0000   0.0000

          k = 0.2000 0.0000 0.0000 ( 36140 PWs)   bands (ev):

   -16.8528 -14.3309 -11.2875  -7.7088  -7.6403  -7.1833  -6.3862  -5.0947
    -3.9424  -2.3560  -1.3129  -0.3136   1.7426   1.9997   2.0795   2.7580
     2.7685   3.1115   3.2107   3.6706   4.0557   4.9591   5.0410   5.3273
     5.3951   6.5260   7.3280   7.7217   8.6597   9.5222

     occupation numbers 
     1.0000   1.0000   1.0000   1.0000   1.0000   1.0000   1.0000   1.0000
     1.0000   1.0000   0.0000   0.0000   0.0000   0.0000   0.0000   0.0000
     0.0000   0.0000   0.0000   0.0000   0.0000   0.0000   0.0000   0.0000
     0.0000   0.0000   0.0000   0.0000   0.0000   0.0000

          k = 0.1750 0.0000 0.0000 ( 36154 PWs)   bands (ev):

   -16.9640 -14.4457 -11.1341  -7.7260  -7.4024  -7.0299  -6.4828  -5.0695
    -3.9763  -2.2553  -1.4177  -0.0334   1.4619   1.9192   2.3409   2.6383
     2.7028   3.0244   3.4863   3.5445   3.9316   4.8445   4.9160   5.2689
     5.6512   6.3253   7.2044   7.5716   8.8372   9.7087

     occupation numbers 
     1.0000   1.0000   1.0000   1.0000   1.0000   1.0000   1.0000   1.0000
     1.0000   1.0000   0.0000   0.0000   0.0000   0.0000   0.0000   0.0000
     0.0000   0.0000   0.0000   0.0000   0.0000   0.0000   0.0000   0.0000
     0.0000   0.0000   0.0000   0.0000   0.0000   0.0000

          k = 0.1500 0.0000 0.0000 ( 36130 PWs)   bands (ev):

   -17.0607 -14.5453 -11.0114  -7.8017  -7.1378  -6.8417  -6.5674  -5.0010
    -4.0132  -2.1742  -1.5090   0.2609   0.9273   1.8108   2.4190   2.5340
     2.8278   3.1518   3.4350   3.8056   3.8257   4.8039   4.8183   5.1575
     5.9978   6.1145   7.0938   7.4384   9.0035   9.3426

     occupation numbers 
     1.0000   1.0000   1.0000   1.0000   1.0000   1.0000   1.0000   1.0000
     1.0000   1.0000   0.0000   0.0000   0.0000   0.0000   0.0000   0.0000
     0.0000   0.0000   0.0000   0.0000   0.0000   0.0000   0.0000   0.0000
     0.0000   0.0000   0.0000   0.0000   0.0000   0.0000

          k = 0.1250 0.0000 0.0000 ( 36116 PWs)   bands (ev):

   -17.1426 -14.6297 -10.9171  -7.8668  -6.9263  -6.6396  -6.6285  -4.8845
    -4.0496  -2.1125  -1.5867   0.4257   0.5582   1.4986   2.3680   2.4451
     3.0801   3.3420   3.4582   3.7401   4.1472   4.7042   4.8423   5.0605
     5.8990   6.3537   6.9965   7.3237   8.7523   9.3734

     occupation numbers 
     1.0000   1.0000   1.0000   1.0000   1.0000   1.0000   1.0000   1.0000
     1.0000   1.0000   0.0000   0.0000   0.0000   0.0000   0.0000   0.0000
     0.0000   0.0000   0.0000   0.0000   0.0000   0.0000   0.0000   0.0000
     0.0000   0.0000   0.0000   0.0000   0.0000   0.0000

          k = 0.1000 0.0000 0.0000 ( 36110 PWs)   bands (ev):

   -17.2098 -14.6988 -10.8474  -7.9207  -6.7715  -6.6991  -6.4045  -4.7265
    -4.0824  -2.0694  -1.6505  -0.0253   0.8455   1.1324   2.3061   2.3719
     3.2656   3.3238   3.6838   3.8144   4.5008   4.6162   4.9063   4.9775
     5.6880   6.6978   6.9128   7.2288   8.2813   9.3203

     occupation numbers 
     1.0000   1.0000   1.0000   1.0000   1.0000   1.0000   1.0000   1.0000
     1.0000   1.0000   0.0000   0.0000   0.0000   0.0000   0.0000   0.0000
     0.0000   0.0000   0.0000   0.0000   0.0000   0.0000   0.0000   0.0000
     0.0000   0.0000   0.0000   0.0000   0.0000   0.0000

          k = 0.0750 0.0000 0.0000 ( 36096 PWs)   bands (ev):

   -17.2621 -14.7525 -10.7983  -7.9631  -6.7457  -6.6680  -6.1888  -4.5478
    -4.1098  -2.0445  -1.7003  -0.4075   0.7849   1.1069   2.2539   2.3143
     3.2058   3.4800   3.7039   4.1394   4.5393   4.8538   4.9082   5.0315
     5.4955   6.8439   6.9904   7.1546   7.7948   8.9794

     occupation numbers 
     1.0000   1.0000   1.0000   1.0000   1.0000   1.0000   1.0000   1.0000
     1.0000   1.0000   0.0000   0.0000   0.0000   0.0000   0.0000   0.0000
     0.0000   0.0000   0.0000   0.0000   0.0000   0.0000   0.0000   0.0000
     0.0000   0.0000   0.0000   0.0000   0.0000   0.0000

          k = 0.0500 0.0000 0.0000 ( 36118 PWs)   bands (ev):

   -17.2995 -14.7910 -10.7661  -7.9935  -6.7790  -6.6048  -6.0051  -4.3801
    -4.1302  -2.0358  -1.7359  -0.6999   0.4988   1.3219   2.2154   2.2724
     3.1627   3.5001   3.8308   4.3636   4.4750   4.8533   5.1823   5.2558
     5.3396   6.7915   7.1013   7.1627   7.3222   8.8001

     occupation numbers 
     1.0000   1.0000   1.0000   1.0000   1.0000   1.0000   1.0000   1.0000
     1.0000   1.0000   0.0000   0.0000   0.0000   0.0000   0.0000   0.0000
     0.0000   0.0000   0.0000   0.0000   0.0000   0.0000   0.0000   0.0000
     0.0000   0.0000   0.0000   0.0000   0.0000   0.0000

          k = 0.0250 0.0000 0.0000 ( 36104 PWs)   bands (ev):

   -17.3219 -14.8140 -10.7480  -8.0118  -6.7991  -6.5715  -5.8797  -4.2593
    -4.1428  -2.0376  -1.7573  -0.8830   0.3088   1.4664   2.1920   2.2465
     3.1365   3.4888   3.9421   4.4296   4.4722   4.8160   5.2381   5.4383
     5.5477   6.7582   6.9075   7.0694   7.1805   8.8442

     occupation numbers 
     1.0000   1.0000   1.0000   1.0000   1.0000   1.0000   1.0000   1.0000
     1.0000   1.0000   0.0000   0.0000   0.0000   0.0000   0.0000   0.0000
     0.0000   0.0000   0.0000   0.0000   0.0000   0.0000   0.0000   0.0000
     0.0000   0.0000   0.0000   0.0000   0.0000   0.0000

          k = 0.0000 0.0000 0.0000 ( 36111 PWs)   bands (ev):

   -17.3294 -14.8217 -10.7422  -8.0179  -6.8058  -6.5611  -5.8348  -4.2151
    -4.1471  -2.0401  -1.7645  -0.9452   0.2418   1.5179   2.1841   2.2377
     3.1277   3.4834   3.9834   4.4127   4.5024   4.8024   5.2030   5.5411
     5.7169   6.7035   6.7468   7.0587   7.1549   8.9769

     occupation numbers 
     1.0000   1.0000   1.0000   1.0000   1.0000   1.0000   1.0000   1.0000
     1.0000   1.0000   0.0000   0.0000   0.0000   0.0000   0.0000   0.0000
     0.0000   0.0000   0.0000   0.0000   0.0000   0.0000   0.0000   0.0000
     0.0000   0.0000   0.0000   0.0000   0.0000   0.0000

          k = 0.0000 0.0256 0.0000 ( 36092 PWs)   bands (ev):

   -17.3230 -14.8256 -10.7599  -8.0430  -6.7707  -6.5709  -5.8299  -4.2172
    -4.1010  -2.1589  -1.6526  -0.9407   0.2318   1.5027   2.2028   2.2466
     3.1363   3.4954   3.9326   4.2713   4.5503   4.8125   5.2762   5.5811
     5.7304   6.7396   6.7431   7.0718   7.1188   9.0084

     occupation numbers 
     1.0000   1.0000   1.0000   1.0000   1.0000   1.0000   1.0000   1.0000
     1.0000   1.0000   0.0000   0.0000   0.0000   0.0000   0.0000   0.0000
     0.0000   0.0000   0.0000   0.0000   0.0000   0.0000   0.0000   0.0000
     0.0000   0.0000   0.0000   0.0000   0.0000   0.0000

          k = 0.0000 0.0513 0.0000 ( 36082 PWs)   bands (ev):

   -17.3038 -14.8375 -10.8101  -8.1182  -6.6682  -6.5930  -5.8149  -4.2238
    -3.9705  -2.3632  -1.4682  -0.9269   0.2013   1.4592   2.2575   2.2733
     3.1619   3.5313   3.7953   4.0275   4.5955   4.8428   5.3583   5.6869
     5.8299   6.7173   6.8459   7.0350   7.1114   8.6742

     occupation numbers 
     1.0000   1.0000   1.0000   1.0000   1.0000   1.0000   1.0000   1.0000
     1.0000   1.0000   0.0000   0.0000   0.0000   0.0000   0.0000   0.0000
     0.0000   0.0000   0.0000   0.0000   0.0000   0.0000   0.0000   0.0000
     0.0000   0.0000   0.0000   0.0000   0.0000   0.0000

          k = 0.0000 0.0769 0.0000 ( 36090 PWs)   bands (ev):

   -17.2720 -14.8582 -10.8844  -8.2415  -6.6121  -6.5063  -5.7902  -4.2352
    -3.7742  -2.5868  -1.2761  -0.9024   0.1499   1.3928   2.3176   2.3451
     3.2033   3.5911   3.6014   3.7628   4.6461   4.8928   5.3266   5.8310
     6.0563   6.6217   6.9723   7.0165   7.1784   8.3497

     occupation numbers 
     1.0000   1.0000   1.0000   1.0000   1.0000   1.0000   1.0000   1.0000
     1.0000   1.0000   0.0000   0.0000   0.0000   0.0000   0.0000   0.0000
     0.0000   0.0000   0.0000   0.0000   0.0000   0.0000   0.0000   0.0000
     0.0000   0.0000   0.0000   0.0000   0.0000   0.0000

          k = 0.0000 0.1026 0.0000 ( 36096 PWs)   bands (ev):

   -17.2276 -14.8891 -10.9718  -8.4072  -6.6153  -6.2953  -5.7559  -4.2519
    -3.5333  -2.8203  -1.0863  -0.8627   0.0768   1.3110   2.3788   2.4607
     3.2525   3.3757   3.5098   3.6744   4.7105   4.9616   5.2356   5.9922
     6.3279   6.4407   6.9633   7.2431   7.2720   8.0189

     occupation numbers 
     1.0000   1.0000   1.0000   1.0000   1.0000   1.0000   1.0000   1.0000
     1.0000   1.0000   0.0000   0.0000   0.0000   0.0000   0.0000   0.0000
     0.0000   0.0000   0.0000   0.0000   0.0000   0.0000   0.0000   0.0000
     0.0000   0.0000   0.0000   0.0000   0.0000   0.0000

          k = 0.0000 0.1282 0.0000 ( 36128 PWs)   bands (ev):

   -17.1709 -14.9317 -11.0611  -8.6062  -6.5961  -6.0461  -5.7123  -4.2746
    -3.2669  -3.0601  -0.9213  -0.7846  -0.0175   1.2221   2.4560   2.5993
     3.1345   3.1963   3.3913   3.7806   4.7912   5.0473   5.1308   6.1594
     6.2172   6.5888   6.9648   7.3781   7.5156   7.7133

     occupation numbers 
     1.0000   1.0000   1.0000   1.0000   1.0000   1.0000   1.0000   1.0000
     1.0000   1.0000   0.0000   0.0000   0.0000   0.0000   0.0000   0.0000
     0.0000   0.0000   0.0000   0.0000   0.0000   0.0000   0.0000   0.0000
     0.0000   0.0000   0.0000   0.0000   0.0000   0.0000

          k = 0.0000 0.1539 0.0000 ( 36148 PWs)   bands (ev):

   -17.1022 -14.9876 -11.1420  -8.8279  -6.5535  -5.7685  -5.6598  -4.3041
    -3.3033  -2.9921  -0.8258  -0.6227  -0.1305   1.1340   2.5460   2.7561
     2.8882   2.9810   3.4668   3.9087   4.8883   5.0346   5.1453   5.9828
     6.3282   6.8122   6.9028   7.4309   7.4988   7.8224

     occupation numbers 
     1.0000   1.0000   1.0000   1.0000   1.0000   1.0000   1.0000   1.0000
     1.0000   1.0000   0.0000   0.0000   0.0000   0.0000   0.0000   0.0000
     0.0000   0.0000   0.0000   0.0000   0.0000   0.0000   0.0000   0.0000
     0.0000   0.0000   0.0000   0.0000   0.0000   0.0000

          k = 0.0000 0.1795 0.0000 ( 36100 PWs)   bands (ev):

   -17.0219 -15.0579 -11.2065  -9.0629  -6.4891  -5.5990  -5.4711  -4.3411
    -3.5475  -2.7256  -0.7577  -0.4190  -0.2564   1.0537   2.6205   2.6434
     2.7920   2.9274   3.5779   4.0572   4.9527   5.0087   5.2423   5.7612
     6.4976   6.7119   6.9657   7.3414   7.4365   7.8664

     occupation numbers 
     1.0000   1.0000   1.0000   1.0000   1.0000   1.0000   1.0000   1.0000
     1.0000   1.0000   0.0000   0.0000   0.0000   0.0000   0.0000   0.0000
     0.0000   0.0000   0.0000   0.0000   0.0000   0.0000   0.0000   0.0000
     0.0000   0.0000   0.0000   0.0000   0.0000   0.0000

          k = 0.0000 0.2052 0.0000 ( 36096 PWs)   bands (ev):

   -16.9304 -15.1432 -11.2483  -9.3036  -6.4047  -5.5304  -5.1617  -4.3861
    -3.7894  -2.4863  -0.6898  -0.3837  -0.2027   0.9871   2.4050   2.4993
     2.8229   3.1108   3.7092   4.2242   4.9055   5.1383   5.2850   5.6042
     6.4573   6.6688   6.8895   7.3283   7.3686   7.6005

     occupation numbers 
     1.0000   1.0000   1.0000   1.0000   1.0000   1.0000   1.0000   1.0000
     1.0000   1.0000   0.0000   0.0000   0.0000   0.0000   0.0000   0.0000
     0.0000   0.0000   0.0000   0.0000   0.0000   0.0000   0.0000   0.0000
     0.0000   0.0000   0.0000   0.0000   0.0000   0.0000

          k = 0.0000 0.2308 0.0000 ( 36116 PWs)   bands (ev):

   -16.8284 -15.2433 -11.2637  -9.5439  -6.3022  -5.4548  -4.8495  -4.4396
    -4.0239  -2.2988  -0.6191  -0.4941   0.0191   0.9386   2.1766   2.3005
     2.9554   3.3051   3.8586   4.4074   4.8825   5.1796   5.2878   5.5795
     6.2334   6.6136   6.8430   7.0479   7.4597   7.6485

     occupation numbers 
     1.0000   1.0000   1.0000   1.0000   1.0000   1.0000   1.0000   1.0000
     1.0000   1.0000   0.0000   0.0000   0.0000   0.0000   0.0000   0.0000
     0.0000   0.0000   0.0000   0.0000   0.0000   0.0000   0.0000   0.0000
     0.0000   0.0000   0.0000   0.0000   0.0000   0.0000

          k = 0.0000 0.2564 0.0000 ( 36114 PWs)   bands (ev):

   -16.7165 -15.3569 -11.2505  -9.7793  -6.1832  -5.3731  -4.5654  -4.5015
    -4.2227  -2.1923  -0.5628  -0.5474   0.2417   0.9117   1.9609   2.1027
     3.1099   3.5100   4.0254   4.6042   4.8808   5.0084   5.4542   5.5279
     6.1429   6.3010   6.7032   7.0218   7.3463   7.6601

     occupation numbers 
     1.0000   1.0000   1.0000   1.0000   1.0000   1.0000   1.0000   1.0000
     1.0000   1.0000   0.0000   0.0000   0.0000   0.0000   0.0000   0.0000
     0.0000   0.0000   0.0000   0.0000   0.0000   0.0000   0.0000   0.0000
     0.0000   0.0000   0.0000   0.0000   0.0000   0.0000

          k = 0.0000 0.2821 0.0000 ( 36080 PWs)   bands (ev):

   -16.5956 -15.4821 -11.2083 -10.0061  -6.0487  -5.2864  -4.5715  -4.5633
    -4.1345  -2.1899  -0.5718  -0.4786   0.4599   0.9085   1.7604   1.9117
     3.2801   3.7259   4.2088   4.8091   4.8370   4.8900   5.3705   5.6357
     5.9869   6.1838   6.4069   7.0293   7.2062   7.6616

     occupation numbers 
     1.0000   1.0000   1.0000   1.0000   1.0000   1.0000   1.0000   1.0000
     1.0000   1.0000   0.0000   0.0000   0.0000   0.0000   0.0000   0.0000
     0.0000   0.0000   0.0000   0.0000   0.0000   0.0000   0.0000   0.0000
     0.0000   0.0000   0.0000   0.0000   0.0000   0.0000

          k = 0.0000 0.3077 0.0000 ( 36088 PWs)   bands (ev):

   -16.4669 -15.6164 -11.1379 -10.2213  -5.9000  -5.1956  -4.7636  -4.6489
    -3.8411  -2.2892  -0.5281  -0.4184   0.6688   0.9305   1.5771   1.7289
     3.4641   3.9529   4.4077   4.6692   4.8971   4.9929   5.2259   5.6670
     5.8454   5.9992   6.4315   6.7101   7.3970   7.4011

     occupation numbers 
     1.0000   1.0000   1.0000   1.0000   1.0000   1.0000   1.0000   1.0000
     1.0000   1.0000   0.0000   0.0000   0.0000   0.0000   0.0000   0.0000
     0.0000   0.0000   0.0000   0.0000   0.0000   0.0000   0.0000   0.0000
     0.0000   0.0000   0.0000   0.0000   0.0000   0.0000

          k = 0.0000 0.3334 0.0000 ( 36124 PWs)   bands (ev):

   -16.3314 -15.7571 -11.0406 -10.4224  -5.7379  -5.1023  -4.9747  -4.7326
    -3.5362  -2.4658  -0.4607  -0.3738   0.8647   0.9779   1.4129   1.5541
     3.6605   4.1907   4.4910   4.6170   4.8920   4.9893   5.3241   5.3794
     5.7098   6.0498   6.4062   6.6034   7.1312   7.5945

     occupation numbers 
     1.0000   1.0000   1.0000   1.0000   1.0000   1.0000   1.0000   1.0000
     1.0000   1.0000   0.0000   0.0000   0.0000   0.0000   0.0000   0.0000
     0.0000   0.0000   0.0000   0.0000   0.0000   0.0000   0.0000   0.0000
     0.0000   0.0000   0.0000   0.0000   0.0000   0.0000

          k = 0.0000 0.3590 0.0000 ( 36128 PWs)   bands (ev):

   -16.1908 -15.9014 -10.9183 -10.6071  -5.5632  -5.1803  -5.0078  -4.8213
    -3.2385  -2.6939  -0.3987  -0.3524   1.0468   1.0508   1.2695   1.3854
     3.8670   4.2904   4.4377   4.7780   4.9018   4.9365   5.1373   5.4105
     5.5751   6.0860   6.3045   6.7057   6.9649   7.3208

     occupation numbers 
     1.0000   1.0000   1.0000   1.0000   1.0000   1.0000   1.0000   1.0000
     1.0000   1.0000   0.0000   0.0000   0.0000   0.0000   0.0000   0.0000
     0.0000   0.0000   0.0000   0.0000   0.0000   0.0000   0.0000   0.0000
     0.0000   0.0000   0.0000   0.0000   0.0000   0.0000

          k = 0.0000 0.3847 0.0000 ( 36094 PWs)   bands (ev):

   -16.0468 -16.0468 -10.7731 -10.7731  -5.3770  -5.3770  -4.9136  -4.9136
    -2.9552  -2.9552  -0.3603  -0.3603   1.1483   1.1483   1.2184   1.2184
     4.0796   4.0796   4.6684   4.6684   4.9379   4.9379   5.1707   5.1707
     5.8223   5.8223   6.5278   6.5278   7.1039   7.1039

     occupation numbers 
     1.0000   1.0000   1.0000   1.0000   1.0000   1.0000   1.0000   1.0000
     1.0000   1.0000   0.0000   0.0000   0.0000   0.0000   0.0000   0.0000
     0.0000   0.0000   0.0000   0.0000   0.0000   0.0000   0.0000   0.0000
     0.0000   0.0000   0.0000   0.0000   0.0000   0.0000

     the Fermi energy is    -1.9054 ev

!    total energy              =     -52.75548777 Ry
     Harris-Foulkes estimate   =     -52.75548777 Ry
     estimated scf accuracy    <          1.3E-10 Ry

     The total energy is the sum of the following terms:

     one-electron contribution =    -438.97907601 Ry
     hartree contribution      =     222.17372732 Ry
     xc contribution           =     -13.33106822 Ry
     ewald contribution        =     177.38092913 Ry
     smearing contrib. (-TS)   =      -0.00000000 Ry

     convergence has been achieved in   9 iterations

     Forces acting on atoms (cartesian axes, Ry/au):

     atom    1 type  1   force =     0.00000000   -0.00296838    0.03565261
     atom    2 type  1   force =     0.00000000    0.00296839   -0.03565261
     atom    3 type  1   force =     0.00000000   -0.00296839   -0.03565261
     atom    4 type  1   force =     0.00000000    0.00296838    0.03565261
     The non-local contrib.  to forces
     atom    1 type  1   force =     0.00000000   -0.26603486    0.23257830
     atom    2 type  1   force =     0.00000000    0.26603540   -0.23257303
     atom    3 type  1   force =     0.00000000   -0.26603540   -0.23257303
     atom    4 type  1   force =     0.00000000    0.26603486    0.23257830
     The ionic contribution  to forces
     atom    1 type  1   force =    -0.00000000    1.39635482   -9.83417623
     atom    2 type  1   force =    -0.00000000   -1.39635602    9.83417623
     atom    3 type  1   force =     0.00000000    1.39635608    9.83417596
     atom    4 type  1   force =     0.00000000   -1.39635488   -9.83417596
     The local contribution  to forces
     atom    1 type  1   force =    -0.00000000   -1.13328952    9.63725844
     atom    2 type  1   force =    -0.00000000    1.13329194   -9.63726716
     atom    3 type  1   force =     0.00000000   -1.13329142   -9.63726703
     atom    4 type  1   force =     0.00000000    1.13328952    9.63725844
     The core correction contribution to forces
     atom    1 type  1   force =     0.00000000    0.00000000    0.00000000
     atom    2 type  1   force =     0.00000000    0.00000000    0.00000000
     atom    3 type  1   force =     0.00000000    0.00000000    0.00000000
     atom    4 type  1   force =     0.00000000    0.00000000    0.00000000
     The Hubbard contrib.    to forces
     atom    1 type  1   force =     0.00000000    0.00000000    0.00000000
     atom    2 type  1   force =     0.00000000    0.00000000    0.00000000
     atom    3 type  1   force =     0.00000000    0.00000000    0.00000000
     atom    4 type  1   force =     0.00000000    0.00000000    0.00000000
     The SCF correction term to forces
     atom    1 type  1   force =     0.00000000    0.00000115   -0.00000810
     atom    2 type  1   force =     0.00000000   -0.00000263    0.00001135
     atom    3 type  1   force =    -0.00000000    0.00000263    0.00001135
     atom    4 type  1   force =    -0.00000000   -0.00000115   -0.00000810

     Total force =     0.071552     Total SCF correction =     0.000020

     Writing output data file p.save
 
     init_run     :      2.36s CPU      1.38s WALL (       1 calls)
     electrons    :     75.66s CPU     40.44s WALL (       1 calls)
     forces       :      0.25s CPU      0.13s WALL (       1 calls)

     Called by init_run:
     wfcinit      :      1.98s CPU      1.09s WALL (       1 calls)
     wfcinit:atom :      0.04s CPU      0.01s WALL (      36 calls)
     wfcinit:wfcr :      1.87s CPU      1.02s WALL (      36 calls)
     potinit      :      0.14s CPU      0.08s WALL (       1 calls)

     Called by electrons:
     c_bands      :     67.16s CPU     35.90s WALL (      10 calls)
     sum_band     :      8.22s CPU      4.32s WALL (      10 calls)
     v_of_rho     :      0.05s CPU      0.02s WALL (      10 calls)
     v_h          :      0.02s CPU      0.01s WALL (      10 calls)
     v_xc         :      0.02s CPU      0.01s WALL (      10 calls)
     mix_rho      :      0.07s CPU      0.04s WALL (      10 calls)

     Called by c_bands:
     init_us_2    :      0.42s CPU      0.22s WALL (     792 calls)
     cegterg      :     65.92s CPU     34.59s WALL (     360 calls)

     Called by sum_band:

     Called by *egterg:
     h_psi        :     39.26s CPU     20.56s WALL (    1512 calls)
     g_psi        :      0.44s CPU      0.17s WALL (    1116 calls)
     cdiaghg      :     17.61s CPU      9.19s WALL (    1440 calls)
     cegterg:over :      3.10s CPU      1.64s WALL (    1116 calls)
     cegterg:upda :      3.12s CPU      1.73s WALL (    1116 calls)
     cegterg:last :      1.18s CPU      0.61s WALL (     396 calls)
     cdiaghg:chol :      0.59s CPU      0.32s WALL (    1440 calls)
     cdiaghg:inve :      0.16s CPU      0.08s WALL (    1440 calls)
     cdiaghg:para :      0.91s CPU      0.49s WALL (    2880 calls)

     Called by h_psi:
     h_psi:pot    :     38.75s CPU     20.34s WALL (    1512 calls)
     h_psi:calbec :      0.91s CPU      0.46s WALL (    1512 calls)
     vloc_psi     :     37.28s CPU     19.54s WALL (    1512 calls)
     add_vuspsi   :      0.52s CPU      0.31s WALL (    1512 calls)

     General routines
     calbec       :      0.99s CPU      0.49s WALL (    1656 calls)
     fft          :      0.10s CPU      0.07s WALL (      43 calls)
     fftw         :     40.68s CPU     21.33s WALL (   67062 calls)
 
     Parallel routines
     fft_scatt_xy :      9.74s CPU      2.38s WALL (   67105 calls)
     fft_scatt_yz :     16.14s CPU      7.67s WALL (   67105 calls)
 
     PWSCF        :  1m22.46s CPU     0m46.13s WALL

 
   This run was terminated on:  21:14:52  27Jul2018            

=------------------------------------------------------------------------------=
   JOB DONE.
=------------------------------------------------------------------------------=
