
     Program PWSCF v.6.0 (svn rev. 13079) starts on 20Jul2018 at 20:57:30 

     This program is part of the open-source Quantum ESPRESSO suite
     for quantum simulation of materials; please cite
         "P. Giannozzi et al., J. Phys.:Condens. Matter 21 395502 (2009);
          URL http://www.quantum-espresso.org", 
     in publications or presentations arising from this work. More details at
     http://www.quantum-espresso.org/quote

     Serial version
     Waiting for input...
     Reading input from standard input
     Message from routine read_cards :
     DEPRECATED: no units specified in CELL_PARAMETERS card

     Current dimensions of program PWSCF are:
     Max number of different atomic species (ntypx) = 10
     Max number of k-points (npk) =  40000
     Max angular momentum in pseudopotentials (lmaxx) =  3
 
     G-vector sticks info
     --------------------
     sticks:   dense  smooth     PW     G-vecs:    dense   smooth      PW
     Sum       15793   15793   4149              1493013  1493013  200597
 


     bravais-lattice index     =            0
     lattice parameter (alat)  =       4.5000  a.u.
     unit-cell volume          =    3906.9844 (a.u.)^3
     number of atoms/cell      =            1
     number of atomic types    =            1
     number of electrons       =         3.00
     number of Kohn-Sham states=           10
     kinetic-energy cutoff     =     200.0000  Ry
     charge density cutoff     =     800.0000  Ry
     convergence threshold     =      5.0E-06
     mixing beta               =       0.7000
     number of iterations used =            4  local-TF  mixing
     Exchange-correlation      = PZ ( 1  1  0  0 0 0)

     celldm(1)=   4.500000  celldm(2)=   0.000000  celldm(3)=   0.000000
     celldm(4)=   0.000000  celldm(5)=   0.000000  celldm(6)=   0.000000

     crystal axes: (cart. coord. in units of alat)
               a(1) = (   3.500000   0.000000   0.000000 )  
               a(2) = (   0.000000   3.500000   0.000000 )  
               a(3) = (   0.000000   0.000000   3.500000 )  

     reciprocal axes: (cart. coord. in units 2 pi/alat)
               b(1) = (  0.285714  0.000000  0.000000 )  
               b(2) = (  0.000000  0.285714  0.000000 )  
               b(3) = (  0.000000  0.000000  0.285714 )  


     PseudoPot. # 1 for  B read from file:
     ./B.UPF
     MD5 check sum: f65ec5f21e6f4ab2e0516e9e9ce30c03
     Pseudo is Norm-conserving + core correction, Zval =  3.0
     Generated using "atomic" code by A. Dal Corso  v.6.0 svn rev. 13079
     Using radial grid of 1059 points,  1 beta functions with: 
                l(1) =   1

     atomic species   valence    mass     pseudopotential
        B              3.00    12.00000      B( 1.00)

     Starting magnetic structure 
     atomic species   magnetization
        B            0.010

     48 Sym. Ops., with inversion, found



   Cartesian axes

     site n.     atom                  positions (alat units)
         1           B   tau(   1) = (   1.7500000   1.7500000   1.7500000  )

     number of k points=     4  gaussian smearing, width (Ry)=  0.0030
                       cart. coord. in units 2pi/alat
        k(    1) = (   0.0000000   0.0000000   0.0000000), wk =   0.1250000
        k(    2) = (   0.0000000   0.0000000  -0.1428571), wk =   0.3750000
        k(    3) = (   0.0000000  -0.1428571  -0.1428571), wk =   0.3750000
        k(    4) = (  -0.1428571  -0.1428571  -0.1428571), wk =   0.1250000

     Dense  grid:  1493013 G-vectors     FFT dimensions: ( 141, 141, 141)

     Estimated max dynamical RAM per process >    1889.86Mb
     Generating pointlists ...
     new r_m :   0.4125 (alat units)  1.8563 (a.u.) for type    1
dfftp%nnr =2803221
    141    141    141    141    141    141
SIZE(dfftp%isind) =   19881
bg(1:3,1):   0.2857  0.0000  0.0000
bg(1:3,2):   0.0000  0.2857  0.0000
bg(1:3,3):   0.0000  0.0000  0.2857
at(1:3,1):   3.5000  0.0000  0.0000
at(1:3,2):   0.0000  3.5000  0.0000
at(1:3,3):   0.0000  0.0000  3.5000
nt =     1 na =    1
tau(:,na) =    1.75000   1.75000   1.75000
  k    rho_core(k)
       1   0.00000E+00
       2   0.00000E+00
       3   0.00000E+00
       4   0.00000E+00
       5   0.00000E+00
       6   0.00000E+00
       7   0.00000E+00
       8   0.00000E+00
       9   0.00000E+00
      10   0.00000E+00
      11   0.00000E+00
      12   0.00000E+00
      13   0.00000E+00
      14   0.00000E+00
      15   0.00000E+00
      16   0.00000E+00
      17   0.00000E+00
      18   0.00000E+00
      19   0.00000E+00
      20   0.00000E+00
      21   0.00000E+00
      22   0.00000E+00
      23   0.00000E+00
      24   0.00000E+00
      25   0.00000E+00
      26   0.00000E+00
      27   0.00000E+00
      28   0.00000E+00
      29   0.00000E+00
      30   0.00000E+00
      31   0.00000E+00
      32   0.00000E+00
      33   0.00000E+00
      34   0.00000E+00
      35   0.00000E+00
      36   0.00000E+00
      37   0.00000E+00
      38   0.00000E+00
      39   0.00000E+00
      40   0.00000E+00
      41   0.00000E+00
      42   0.00000E+00
      43   0.00000E+00
      44   0.00000E+00
      45   0.00000E+00
      46   0.00000E+00
      47   0.00000E+00
      48   0.00000E+00
      49   0.00000E+00
      50   0.00000E+00
      51   0.00000E+00
      52   0.00000E+00
      53   0.00000E+00
      54   0.00000E+00
      55   0.00000E+00
      56   0.00000E+00
      57   0.00000E+00
      58   0.00000E+00
      59   0.00000E+00
      60   0.00000E+00
      61   0.00000E+00
      62   0.00000E+00
      63   0.00000E+00
      64   0.00000E+00
      65   0.00000E+00
      66   0.00000E+00
      67   0.00000E+00
      68   0.00000E+00
      69   0.00000E+00
      70   0.00000E+00
      71   0.00000E+00
      72   0.00000E+00
      73   0.00000E+00
      74   0.00000E+00
      75   0.00000E+00
      76   0.00000E+00
      77   0.00000E+00
      78   0.00000E+00
      79   0.00000E+00
      80   0.00000E+00
      81   0.00000E+00
      82   0.00000E+00
      83   0.00000E+00
      84   0.00000E+00
      85   0.00000E+00
      86   0.00000E+00
      87   0.00000E+00
      88   0.00000E+00
      89   0.00000E+00
      90   0.00000E+00
      91   0.00000E+00
      92   0.00000E+00
      93   0.00000E+00
      94   0.00000E+00
      95   0.00000E+00
      96   0.00000E+00
      97   0.00000E+00
      98   0.00000E+00
      99   0.00000E+00
     100   0.00000E+00
     101   0.00000E+00
     102   0.00000E+00
     103   0.00000E+00
     104   0.00000E+00
     105   0.00000E+00
     106   0.00000E+00
     107   0.00000E+00
     108   0.00000E+00
     109   0.00000E+00
     110   0.00000E+00
     111   0.00000E+00
     112   0.00000E+00
     113   0.00000E+00
     114   0.00000E+00
     115   0.00000E+00
     116   0.00000E+00
     117   0.00000E+00
     118   0.00000E+00
     119   0.00000E+00
     120   0.00000E+00
     121   0.00000E+00
     122   0.00000E+00
     123   0.00000E+00
     124   0.00000E+00
     125   0.00000E+00
     126   0.00000E+00
     127   0.00000E+00
     128   0.00000E+00
     129   0.00000E+00
     130   0.00000E+00
     131   0.00000E+00
     132   0.00000E+00
     133   0.00000E+00
     134   0.00000E+00
     135   0.00000E+00
     136   0.00000E+00
     137   0.00000E+00
     138   0.00000E+00
     139   0.00000E+00
     140   0.00000E+00
     141   0.00000E+00
     142   0.00000E+00
     143   0.00000E+00
     144   0.00000E+00
     145   0.00000E+00
     146   0.00000E+00
     147   0.00000E+00
     148   0.00000E+00
     149   0.00000E+00
     150   0.00000E+00
     151   0.00000E+00
     152   0.00000E+00
     153   0.00000E+00
     154   0.00000E+00
     155   0.00000E+00
     156   0.00000E+00
     157   0.00000E+00
     158   0.00000E+00
     159   0.00000E+00
     160   0.00000E+00
     161   0.00000E+00
     162   0.00000E+00
     163   0.00000E+00
     164   0.00000E+00
     165   0.00000E+00
     166   0.00000E+00
     167   0.00000E+00
     168   0.00000E+00
     169   0.00000E+00
     170   0.00000E+00
     171   0.00000E+00
     172   0.00000E+00
     173   0.00000E+00
     174   0.00000E+00
     175   0.00000E+00
     176   0.00000E+00
     177   0.00000E+00
     178   0.00000E+00
     179   0.00000E+00
     180   0.00000E+00
     181   0.00000E+00
     182   0.00000E+00
     183   0.00000E+00
     184   0.00000E+00
     185   0.00000E+00
     186   0.00000E+00
     187   0.00000E+00
     188   0.00000E+00
     189   0.00000E+00
     190   0.00000E+00
     191   0.00000E+00
     192   0.00000E+00
     193   0.00000E+00
     194   0.00000E+00
     195   0.00000E+00
     196   0.00000E+00
     197   0.00000E+00
     198   0.00000E+00
     199   0.00000E+00
     200   0.00000E+00
     201   0.00000E+00
     202   0.00000E+00
     203   0.00000E+00
     204   0.00000E+00
     205   0.00000E+00
     206   0.00000E+00
     207   0.00000E+00
     208   0.00000E+00
     209   0.00000E+00
     210   0.00000E+00
     211   0.00000E+00
     212   0.00000E+00
     213   0.00000E+00
     214   0.00000E+00
     215   0.00000E+00
     216   0.00000E+00
     217   0.00000E+00
     218   0.00000E+00
     219   0.00000E+00
     220   0.00000E+00
     221   0.00000E+00
     222   0.00000E+00
     223   0.00000E+00
     224   0.00000E+00
     225   0.00000E+00
     226   0.00000E+00
     227   0.00000E+00
     228   0.00000E+00
     229   0.00000E+00
     230   0.00000E+00
     231   0.00000E+00
     232   0.00000E+00
     233   0.00000E+00
     234   0.00000E+00
     235   0.00000E+00
     236   0.00000E+00
     237   0.00000E+00
     238   0.00000E+00
     239   0.00000E+00
     240   0.00000E+00
     241   0.00000E+00
     242   0.00000E+00
     243   0.00000E+00
     244   0.00000E+00
     245   0.00000E+00
     246   0.00000E+00
     247   0.00000E+00
     248   0.00000E+00
     249   0.00000E+00
     250   0.00000E+00
     251   0.00000E+00
     252   0.00000E+00
     253   0.00000E+00
     254   0.00000E+00
     255   0.00000E+00
     256   0.00000E+00
     257   0.00000E+00
     258   0.00000E+00
     259   0.00000E+00
     260   0.00000E+00
     261   0.00000E+00
     262   0.00000E+00
     263   0.00000E+00
     264   0.00000E+00
     265   0.00000E+00
     266   0.00000E+00
     267   0.00000E+00
     268   0.00000E+00
     269   0.00000E+00
     270   0.00000E+00
     271   0.00000E+00
     272   0.00000E+00
     273   0.00000E+00
     274   0.00000E+00
     275   0.00000E+00
     276   0.00000E+00
     277   0.00000E+00
     278   0.00000E+00
     279   0.00000E+00
     280   0.00000E+00
     281   0.00000E+00
     282   0.00000E+00
     283   0.00000E+00
     284   0.00000E+00
     285   0.00000E+00
     286   0.00000E+00
     287   0.00000E+00
     288   0.00000E+00
     289   0.00000E+00
     290   0.00000E+00
     291   0.00000E+00
     292   0.00000E+00
     293   0.00000E+00
     294   0.00000E+00
     295   0.00000E+00
     296   0.00000E+00
     297   0.00000E+00
     298   0.00000E+00
     299   0.00000E+00
     300   0.00000E+00
  ------------ 
  k    averhoc
           1  0.000000000000000E+000
           2  0.000000000000000E+000
           3  0.000000000000000E+000
           4  0.000000000000000E+000
           5  0.000000000000000E+000
           6  0.000000000000000E+000
           7  0.000000000000000E+000
           8  0.000000000000000E+000
           9  0.000000000000000E+000
          10  1.129990979594341E-024
          11  5.389775900201445E-024
          12  1.517716485227603E-023
          13  3.742561976115263E-023
          14  8.853003706148092E-023
          15  2.050073919202069E-022
          16  4.690194802439372E-022
          17  1.074765581508004E-021
          18  2.446292809159185E-021
          19  5.596150260386885E-021
          20  1.273559544607785E-020
          21  2.911151843424869E-020
          22  6.635200767065637E-020
          23  1.513157478045576E-019
          24  3.459578198429434E-019
          25  7.892480650911917E-019
          26  1.800972515525316E-018
          27  4.118647756410559E-018
          28  9.415487963900288E-018
          29  2.151924656270146E-017
          30  4.918165141406196E-017
          31  1.124598511060108E-016
          32  2.572515175559427E-016
          33  5.887213844977380E-016
          34  1.347844123641823E-015
          35  3.086672932897003E-015
          36  7.065917408647203E-015
          37  1.618946886017847E-014
          38  3.713226268149172E-014
          39  8.508391752940966E-014
          40  1.953046741789413E-013
          41  4.478803639905958E-013
          42  1.028442334425677E-012
          43  2.362022733869931E-012
          44  5.426469234011454E-012
          45  1.247258124381814E-011
          46  2.867369990755986E-011
          47  6.596487039528584E-011
          48  1.517989048342072E-010
          49  3.495054883846957E-010
          50  8.052214417388532E-010
          51  1.855173551637263E-009
          52  4.277225317805666E-009
          53  9.864554446352968E-009
          54  2.274856334887256E-008
          55  5.249044845438533E-008
          56  1.210641183599572E-007
          57  2.793398687612481E-007
          58  6.443287815054900E-007
          59  1.485624727882441E-006
          60  3.423498963406998E-006
          61  7.879752041005819E-006
          62  1.810507706305333E-005
          63  4.148882559273177E-005
          64  9.481720930925749E-005
          65  2.156630401522600E-004
          66  4.744875238922662E-004
          67  8.735624390820183E-004
          68  1.342394951508520E-003
          69  1.795997153825737E-003
          70  2.153237072381639E-003
          71  2.349053677285500E-003
          72  2.349053677285500E-003
          73  2.153237072381639E-003
          74  1.795997153825737E-003
          75  1.342394951508520E-003
          76  8.735624390820183E-004
          77  4.744875238922662E-004
          78  2.156630401522600E-004
          79  9.481720930925749E-005
          80  4.148882559273177E-005
          81  1.810507706305333E-005
          82  7.879752041005874E-006
          83  3.423498963406998E-006
          84  1.485624727882441E-006
          85  6.443287815054846E-007
          86  2.793398687612460E-007
          87  1.210641183599581E-007
          88  5.249044845438533E-008
          89  2.274856334887256E-008
          90  9.864554446352902E-009
          91  4.277225317805699E-009
          92  1.855173551637279E-009
          93  8.052214417388532E-010
          94  3.495054883846957E-010
          95  1.517989048342059E-010
          96  6.596487039528637E-011
          97  2.867369990756013E-011
          98  1.247258124381814E-011
          99  5.426469234011454E-012
         100  2.362022733869920E-012
         101  1.028442334425686E-012
         102  4.478803639905969E-013
         103  1.953046741789413E-013
         104  8.508391752940937E-014
         105  3.713226268149139E-014
         106  1.618946886017856E-014
         107  7.065917408647231E-015
         108  3.086672932897003E-015
         109  1.347844123641815E-015
         110  5.887213844977340E-016
         111  2.572515175559445E-016
         112  1.124598511060108E-016
         113  4.918165141406196E-017
         114  2.151924656270146E-017
         115  9.415487963900211E-018
         116  4.118647756410559E-018
         117  1.800972515525316E-018
         118  7.892480650911917E-019
         119  3.459578198429434E-019
         120  1.513157478045568E-019
         121  6.635200767065637E-020
         122  2.911151843424869E-020
         123  1.273559544607785E-020
         124  5.596150260386885E-021
         125  2.446292809159195E-021
         126  1.074765581508004E-021
         127  4.690194802439372E-022
         128  2.050073919202069E-022
         129  8.853003706148059E-023
         130  3.742561976115280E-023
         131  1.517716485227603E-023
         132  5.389775900201445E-024
         133  1.129990979594341E-024
         134  0.000000000000000E+000
         135  0.000000000000000E+000
         136  0.000000000000000E+000
         137  0.000000000000000E+000
         138  0.000000000000000E+000
         139  0.000000000000000E+000
         140  0.000000000000000E+000
         141  0.000000000000000E+000
  ------------ 
  k    rhog_core(k)
       1   0.13295E-03   0.00000E+00
       2  -0.13174E-03   0.41597E-20
       3  -0.13174E-03   0.40040E-20
       4  -0.13174E-03   0.42174E-20
       5  -0.13174E-03  -0.75588E-20
       6  -0.13174E-03  -0.69506E-20
       7  -0.13174E-03  -0.65457E-20
       8   0.13055E-03  -0.87780E-20
       9   0.13055E-03  -0.75314E-20
      10   0.13055E-03   0.23518E-20
      11   0.13055E-03   0.23365E-20
      12   0.13055E-03  -0.54965E-20
      13   0.13055E-03   0.28170E-20
      14   0.13055E-03   0.27359E-20
      15   0.13055E-03   0.14560E-19
      16   0.13055E-03   0.14492E-20
      17   0.13055E-03   0.30375E-20
      18   0.13055E-03   0.13254E-19
      19   0.13055E-03   0.12935E-19
      20  -0.12936E-03   0.91762E-20
      21  -0.12936E-03   0.14802E-20
      22  -0.12936E-03   0.81876E-21
      23  -0.12936E-03  -0.88071E-20
      24  -0.12936E-03   0.11672E-20
      25  -0.12936E-03  -0.78230E-20
      26  -0.12936E-03  -0.72478E-20
      27  -0.12936E-03  -0.18803E-19
      28   0.12819E-03   0.46283E-20
      29   0.12819E-03   0.37585E-20
      30   0.12819E-03   0.43619E-20
      31   0.12819E-03  -0.79640E-21
      32   0.12819E-03   0.32265E-21
      33   0.12819E-03  -0.10898E-20
      34  -0.12703E-03  -0.60323E-21
      35  -0.12703E-03  -0.42292E-20
      36  -0.12703E-03  -0.11394E-19
      37  -0.12703E-03  -0.11046E-19
      38  -0.12703E-03   0.71796E-21
      39  -0.12703E-03  -0.14214E-20
      40  -0.12703E-03   0.43424E-20
      41  -0.12703E-03   0.49704E-20
      42  -0.12703E-03  -0.17250E-20
      43  -0.12703E-03  -0.98131E-20
      44  -0.12703E-03   0.92651E-21
      45  -0.12703E-03   0.32402E-20
      46  -0.12703E-03  -0.93909E-20
      47  -0.12703E-03  -0.92841E-20
      48  -0.12703E-03   0.64741E-20
      49  -0.12703E-03  -0.66741E-20
      50  -0.12703E-03  -0.96969E-20
      51  -0.12703E-03  -0.90206E-20
      52  -0.12703E-03  -0.60889E-20
      53  -0.12703E-03  -0.63143E-20
      54  -0.12703E-03   0.43862E-20
      55  -0.12703E-03   0.67434E-20
      56  -0.12703E-03  -0.54568E-20
      57  -0.12703E-03  -0.54971E-20
      58   0.12587E-03  -0.22291E-20
      59   0.12587E-03   0.65402E-20
      60   0.12587E-03   0.82723E-20
      61   0.12587E-03   0.18365E-19
      62   0.12587E-03  -0.44959E-20
      63   0.12587E-03   0.48906E-20
      64   0.12587E-03   0.15885E-21
      65   0.12587E-03  -0.97915E-20
      66   0.12587E-03   0.62107E-20
      67   0.12587E-03   0.15740E-20
      68   0.12587E-03  -0.56826E-20
      69   0.12587E-03   0.54170E-21
      70   0.12587E-03   0.61298E-20
      71   0.12587E-03   0.16513E-19
      72   0.12587E-03   0.80455E-20
      73   0.12587E-03   0.58136E-21
      74   0.12587E-03   0.16372E-19
      75   0.12587E-03   0.11415E-19
      76   0.12587E-03   0.20430E-20
      77   0.12587E-03   0.12456E-19
      78   0.12587E-03  -0.58364E-20
      79   0.12587E-03   0.69581E-21
      80   0.12587E-03  -0.57897E-22
      81   0.12587E-03   0.12842E-19
      82   0.12360E-03   0.88057E-20
      83   0.12360E-03   0.87070E-20
      84   0.12360E-03   0.44040E-20
      85   0.12360E-03   0.44713E-20
      86   0.12360E-03   0.55667E-20
      87   0.12360E-03   0.28660E-20
      88   0.12360E-03   0.49719E-20
      89   0.12360E-03  -0.56630E-21
      90   0.12360E-03   0.55556E-20
      91   0.12360E-03   0.25156E-20
      92   0.12360E-03  -0.82740E-21
      93   0.12360E-03  -0.65422E-21
      94  -0.12248E-03   0.39504E-20
      95  -0.12248E-03  -0.25577E-20
      96  -0.12248E-03  -0.15176E-19
      97  -0.12248E-03  -0.48279E-20
      98  -0.12248E-03  -0.73480E-21
      99  -0.12248E-03  -0.17078E-19
     100  -0.12248E-03  -0.89235E-20
 1492913  -0.25519E-07   0.35904E-21
 1492914  -0.25519E-07   0.39459E-21
 1492915  -0.25519E-07   0.36469E-21
 1492916  -0.25519E-07   0.33320E-21
 1492917  -0.25519E-07   0.33772E-21
 1492918  -0.27137E-07   0.21482E-21
 1492919  -0.27137E-07   0.21293E-21
 1492920  -0.27137E-07   0.12277E-21
 1492921  -0.27137E-07   0.95454E-22
 1492922  -0.27137E-07   0.11585E-21
 1492923  -0.27137E-07   0.88484E-22
 1492924  -0.27137E-07   0.20164E-21
 1492925  -0.27137E-07   0.19459E-21
 1492926  -0.21841E-07  -0.77200E-21
 1492927  -0.21841E-07  -0.76526E-21
 1492928  -0.21841E-07  -0.86532E-21
 1492929  -0.21841E-07  -0.86204E-21
 1492930  -0.21841E-07  -0.86764E-21
 1492931  -0.21841E-07  -0.87158E-21
 1492932  -0.21841E-07  -0.77581E-21
 1492933  -0.21841E-07  -0.76967E-21
 1492934  -0.31034E-07   0.24127E-21
 1492935  -0.31034E-07   0.26104E-21
 1492936  -0.31034E-07   0.35807E-21
 1492937  -0.31034E-07   0.34261E-21
 1492938  -0.31034E-07   0.36401E-21
 1492939  -0.31034E-07   0.35104E-21
 1492940  -0.31034E-07   0.22413E-21
 1492941  -0.31034E-07   0.24163E-21
 1492942  -0.31034E-07   0.15345E-21
 1492943  -0.31034E-07   0.16753E-21
 1492944  -0.27137E-07   0.26178E-22
 1492945  -0.27137E-07   0.19391E-22
 1492946  -0.25519E-07  -0.17768E-21
 1492947  -0.25519E-07  -0.17402E-21
 1492948  -0.25519E-07   0.33702E-21
 1492949  -0.25519E-07   0.34409E-21
 1492950  -0.27137E-07   0.40170E-21
 1492951  -0.27137E-07   0.41215E-21
 1492952  -0.31034E-07   0.17639E-21
 1492953  -0.31034E-07   0.17776E-21
 1492954  -0.31034E-07   0.18153E-21
 1492955  -0.31034E-07   0.18300E-21
 1492956  -0.27137E-07   0.39854E-21
 1492957  -0.27137E-07   0.40991E-21
 1492958  -0.25519E-07   0.33641E-21
 1492959  -0.25519E-07   0.34495E-21
 1492960  -0.25519E-07  -0.16212E-21
 1492961  -0.25519E-07  -0.15962E-21
 1492962  -0.27137E-07   0.43389E-22
 1492963  -0.27137E-07   0.40229E-22
 1492964  -0.31034E-07   0.15001E-21
 1492965  -0.31034E-07   0.16835E-21
 1492966  -0.15749E-07   0.10953E-21
 1492967  -0.15749E-07   0.10683E-21
 1492968  -0.15749E-07   0.52635E-22
 1492969  -0.15749E-07   0.52058E-22
 1492970  -0.15749E-07   0.51118E-22
 1492971  -0.15749E-07   0.48440E-22
 1492972  -0.15749E-07   0.10110E-21
 1492973  -0.15749E-07   0.98531E-22
 1492974  -0.19280E-07   0.35447E-21
 1492975  -0.19280E-07   0.34960E-21
 1492976  -0.12752E-07   0.98199E-22
 1492977  -0.12752E-07   0.10272E-21
 1492978  -0.12752E-07   0.10861E-21
 1492979  -0.12752E-07   0.10640E-21
 1492980  -0.19280E-07   0.33266E-21
 1492981  -0.19280E-07   0.33861E-21
 1492982  -0.19280E-07   0.32153E-21
 1492983  -0.19280E-07   0.32614E-21
 1492984  -0.12752E-07   0.11267E-21
 1492985  -0.12752E-07   0.11131E-21
 1492986  -0.12752E-07   0.97426E-22
 1492987  -0.12752E-07   0.10533E-21
 1492988  -0.19280E-07   0.36642E-21
 1492989  -0.19280E-07   0.36225E-21
 1492990  -0.35718E-07   0.41438E-22
 1492991  -0.35718E-07   0.40067E-22
 1492992  -0.35718E-07   0.35490E-22
 1492993  -0.35718E-07   0.35483E-22
 1492994  -0.35718E-07   0.37547E-22
 1492995  -0.35718E-07   0.32913E-22
 1492996  -0.35718E-07   0.40337E-22
 1492997  -0.35718E-07   0.36860E-22
 1492998  -0.16663E-07   0.93239E-22
 1492999  -0.16663E-07   0.87556E-22
 1493000  -0.16922E-07   0.37295E-23
 1493001  -0.16922E-07   0.38152E-23
 1493002  -0.16922E-07  -0.53954E-23
 1493003  -0.16922E-07  -0.42985E-23
 1493004  -0.16663E-07   0.35369E-23
 1493005  -0.16663E-07   0.30869E-23
 1493006  -0.16663E-07  -0.10297E-23
 1493007  -0.16663E-07  -0.18292E-23
 1493008  -0.16922E-07  -0.78226E-23
 1493009  -0.16922E-07  -0.59778E-23
 1493010  -0.16922E-07   0.37287E-23
 1493011  -0.16922E-07   0.34185E-23
 1493012  -0.16663E-07   0.92301E-22
 1493013  -0.16663E-07   0.87203E-22
  ------------ 

     Initial potential from superposition of free atoms

     starting charge    2.99976, renormalised to    3.00000

     negative rho (up, down):  7.353E-06 7.207E-06
     Starting wfc are    4 randomized atomic wfcs +    6 random wfc

     total cpu time spent up to now is       99.0 secs

     per-process dynamical memory:   995.8 Mb

     Self-consistent Calculation

     iteration #  1     ecut=   200.00 Ry     beta=0.70
     Davidson diagonalization with overlap
     ethr =  1.00E-02,  avg # of iterations =  9.4

     Threshold (ethr) on eigenvalues was too large:
     Diagonalizing with lowered threshold

     Davidson diagonalization with overlap
     ethr =  3.98E-05,  avg # of iterations = 11.1

     negative rho (up, down):  2.374E-07 4.169E-06

     total cpu time spent up to now is      643.1 secs

     total energy              =      -5.73853262 Ry
     Harris-Foulkes estimate   =      -5.73267367 Ry
     estimated scf accuracy    <       0.00119986 Ry

     total magnetization       =     0.65 Bohr mag/cell
     absolute magnetization    =     0.65 Bohr mag/cell

     iteration #  2     ecut=   200.00 Ry     beta=0.70
     Davidson diagonalization with overlap
     ethr =  4.00E-05,  avg # of iterations =  2.1

     negative rho (up, down):  0.000E+00 2.388E-04

     total cpu time spent up to now is      892.2 secs

     total energy              =      -5.74451343 Ry
     Harris-Foulkes estimate   =      -5.74352139 Ry
     estimated scf accuracy    <       0.00100313 Ry

     total magnetization       =     1.00 Bohr mag/cell
     absolute magnetization    =     1.00 Bohr mag/cell

     iteration #  3     ecut=   200.00 Ry     beta=0.70
     Davidson diagonalization with overlap
     ethr =  3.34E-05,  avg # of iterations =  2.9

     total cpu time spent up to now is     1059.6 secs

     total energy              =      -5.74497088 Ry
     Harris-Foulkes estimate   =      -5.74510824 Ry
     estimated scf accuracy    <       0.00063381 Ry

     total magnetization       =     1.00 Bohr mag/cell
     absolute magnetization    =     1.00 Bohr mag/cell

     iteration #  4     ecut=   200.00 Ry     beta=0.70
     Davidson diagonalization with overlap
     ethr =  2.11E-05,  avg # of iterations =  2.6

     total cpu time spent up to now is     1235.2 secs

     total energy              =      -5.74472377 Ry
     Harris-Foulkes estimate   =      -5.74540173 Ry
     estimated scf accuracy    <       0.00061753 Ry

     total magnetization       =     1.00 Bohr mag/cell
     absolute magnetization    =     1.00 Bohr mag/cell

     iteration #  5     ecut=   200.00 Ry     beta=0.70
     Davidson diagonalization with overlap
     ethr =  2.06E-05,  avg # of iterations =  1.0

     total cpu time spent up to now is     1367.3 secs

     total energy              =      -5.74584928 Ry
     Harris-Foulkes estimate   =      -5.74472511 Ry
     estimated scf accuracy    <       0.00074258 Ry

     total magnetization       =     1.00 Bohr mag/cell
     absolute magnetization    =     1.00 Bohr mag/cell

     iteration #  6     ecut=   200.00 Ry     beta=0.70
     Davidson diagonalization with overlap
     ethr =  2.06E-05,  avg # of iterations =  1.0

     total cpu time spent up to now is     1494.7 secs

     total energy              =      -5.74875400 Ry
     Harris-Foulkes estimate   =      -5.74585181 Ry
     estimated scf accuracy    <       0.00054036 Ry

     total magnetization       =     1.00 Bohr mag/cell
     absolute magnetization    =     1.00 Bohr mag/cell

     iteration #  7     ecut=   200.00 Ry     beta=0.70
     Davidson diagonalization with overlap
     ethr =  1.80E-05,  avg # of iterations =  2.0
 
     Magnetic moment per site:
     atom:    1    charge:    1.7117    magn:    0.5324    constr:    0.0000

     total cpu time spent up to now is     1614.6 secs

     End of self-consistent calculation

 ------ SPIN UP ------------


          k = 0.0000 0.0000 0.0000 (186623 PWs)   bands (ev):

    -9.5721  -3.8527  -3.8527  -3.8527  -0.4375   1.4642   1.4642   1.7459
     1.7459   1.7459

          k = 0.0000 0.0000-0.1429 (186630 PWs)   bands (ev):

    -9.5718  -3.8665  -3.8515  -3.8515   0.0373   0.2533   1.7512   2.0709
     2.0711   2.2092

          k = 0.0000-0.1429-0.1429 (186716 PWs)   bands (ev):

    -9.5715  -3.8648  -3.8648  -3.8504   0.5651   0.6972   0.6972   0.7703
     2.3610   2.3611

          k =-0.1429-0.1429-0.1429 (186352 PWs)   bands (ev):

    -9.5712  -3.8631  -3.8631  -3.8631   1.1341   1.1341   1.1341   1.1592
     1.1592   1.1592

 ------ SPIN DOWN ----------


          k = 0.0000 0.0000 0.0000 (186623 PWs)   bands (ev):

    -8.5055  -2.8967  -2.8967  -2.8967  -0.3338   1.5459   1.5459   1.8910
     1.8910   1.8910

          k = 0.0000 0.0000-0.1429 (186630 PWs)   bands (ev):

    -8.5049  -2.9233  -2.8944  -2.8944   0.1702   0.3539   1.8562   2.1512
     2.1513   2.4063

          k = 0.0000-0.1429-0.1429 (186716 PWs)   bands (ev):

    -8.5044  -2.9193  -2.9193  -2.8922   0.7367   0.8075   0.8303   0.8303
     2.4670   2.4670

          k =-0.1429-0.1429-0.1429 (186352 PWs)   bands (ev):

    -8.5039  -2.9158  -2.9158  -2.9158   1.2125   1.2125   1.2125   1.3114
     1.3114   1.3114

     the Fermi energy is    -3.8709 ev

!    total energy              =      -5.74885532 Ry
     Harris-Foulkes estimate   =      -5.74885526 Ry
     estimated scf accuracy    <       0.00000111 Ry

     The total energy is the sum of the following terms:

     one-electron contribution =      -4.32334056 Ry
     hartree contribution      =       2.42914960 Ry
     xc contribution           =      -2.23109876 Ry
     ewald contribution        =      -1.62131285 Ry
     smearing contrib. (-TS)   =      -0.00225276 Ry

     total magnetization       =     1.00 Bohr mag/cell
     absolute magnetization    =     1.00 Bohr mag/cell

     convergence has been achieved in   7 iterations

     Forces acting on atoms (Ry/au):

     atom    1 type  1   force =     0.00000000    0.00000000    0.00000000

     Total force =     0.000000     Total SCF correction =     0.000000


     entering subroutine stress ...

          total   stress  (Ry/bohr**3)                   (kbar)     P=    0.01
   0.00000007   0.00000000   0.00000000          0.01      0.00      0.00
   0.00000000   0.00000007   0.00000000          0.00      0.01      0.00
   0.00000000   0.00000000   0.00000007          0.00      0.00      0.01


     Writing output data file B.save
 
     init_run     :     52.33s CPU     97.80s WALL (       1 calls)
     electrons    :   1336.85s CPU   1516.03s WALL (       1 calls)
     forces       :      1.58s CPU      1.64s WALL (       1 calls)
     stress       :      5.24s CPU      6.22s WALL (       1 calls)

     Called by init_run:
     wfcinit      :     31.27s CPU     31.81s WALL (       1 calls)
     potinit      :      1.45s CPU      1.67s WALL (       1 calls)

     Called by electrons:
     c_bands      :    830.14s CPU    838.94s WALL (       8 calls)
     sum_band     :    151.23s CPU    317.06s WALL (       8 calls)
     v_of_rho     :      4.45s CPU      4.76s WALL (       8 calls)
     mix_rho      :    350.92s CPU    354.85s WALL (       8 calls)

     Called by c_bands:
     init_us_2    :      2.13s CPU      2.34s WALL (     152 calls)
     cegterg      :    828.20s CPU    836.46s WALL (      64 calls)

     Called by sum_band:

     Called by *egterg:
     h_psi        :    837.06s CPU    837.26s WALL (     329 calls)
     g_psi        :      1.71s CPU      1.68s WALL (     257 calls)
     cdiaghg      :      0.06s CPU      0.20s WALL (     313 calls)

     Called by h_psi:
     h_psi:pot    :    835.25s CPU    835.40s WALL (     329 calls)
     h_psi:calbec :      1.57s CPU      1.61s WALL (     329 calls)
     vloc_psi     :    832.64s CPU    832.72s WALL (     329 calls)
     add_vuspsi   :      1.03s CPU      1.07s WALL (     329 calls)

     General routines
     calbec       :      1.81s CPU      1.85s WALL (     369 calls)
     fft          :     11.95s CPU     12.06s WALL (      66 calls)
     ffts         :    246.70s CPU    246.61s WALL (    1360 calls)
     fftw         :    920.54s CPU    920.56s WALL (    5086 calls)
     davcio       :      0.00s CPU      0.37s WALL (       8 calls)
 
 
     PWSCF        : 23m16.34s CPU    27m 4.03s WALL

 
   This run was terminated on:  21:24:34  20Jul2018            

=------------------------------------------------------------------------------=
   JOB DONE.
=------------------------------------------------------------------------------=
