
     Program PWSCF v.6.0 (svn rev. 13079) starts on 15Jul2018 at 16:15:12 

     This program is part of the open-source Quantum ESPRESSO suite
     for quantum simulation of materials; please cite
         "P. Giannozzi et al., J. Phys.:Condens. Matter 21 395502 (2009);
          URL http://www.quantum-espresso.org", 
     in publications or presentations arising from this work. More details at
     http://www.quantum-espresso.org/quote

     Serial version
     Waiting for input...
     Reading input from standard input
     Message from routine read_cards :
     DEPRECATED: no units specified in CELL_PARAMETERS card

     Current dimensions of program PWSCF are:
     Max number of different atomic species (ntypx) = 10
     Max number of k-points (npk) =  40000
     Max angular momentum in pseudopotentials (lmaxx) =  3
 
     G-vector sticks info
     --------------------
     sticks:   dense  smooth     PW     G-vecs:    dense   smooth      PW
     Sum        7893    7893   2093               527625   527625   72791
 


     bravais-lattice index     =            0
     lattice parameter (alat)  =       4.5000  a.u.
     unit-cell volume          =    3906.9844 (a.u.)^3
     number of atoms/cell      =            1
     number of atomic types    =            1
     number of electrons       =         1.00
     number of Kohn-Sham states=           10
     kinetic-energy cutoff     =     100.0000  Ry
     charge density cutoff     =     400.0000  Ry
     convergence threshold     =      5.0E-06
     mixing beta               =       0.7000
     number of iterations used =            4  local-TF  mixing
     Exchange-correlation      = PZ ( 1  1  0  0 0 0)

     celldm(1)=   4.500000  celldm(2)=   0.000000  celldm(3)=   0.000000
     celldm(4)=   0.000000  celldm(5)=   0.000000  celldm(6)=   0.000000

     crystal axes: (cart. coord. in units of alat)
               a(1) = (   3.500000   0.000000   0.000000 )  
               a(2) = (   0.000000   3.500000   0.000000 )  
               a(3) = (   0.000000   0.000000   3.500000 )  

     reciprocal axes: (cart. coord. in units 2 pi/alat)
               b(1) = (  0.285714  0.000000  0.000000 )  
               b(2) = (  0.000000  0.285714  0.000000 )  
               b(3) = (  0.000000  0.000000  0.285714 )  


     PseudoPot. # 1 for Na read from file:
     ./Na.UPF
     MD5 check sum: f52dabe15638a665025d12def70c4041
     Pseudo is Norm-conserving + core correction, Zval =  1.0
     Generated using "atomic" code by A. Dal Corso  v.6.0 svn rev. 13079
     Using radial grid of 1121 points,  1 beta functions with: 
                l(1) =   0

     atomic species   valence    mass     pseudopotential
        Na             1.00    12.00000     Na( 1.00)

     Starting magnetic structure 
     atomic species   magnetization
        Na           0.010

     48 Sym. Ops., with inversion, found



   Cartesian axes

     site n.     atom                  positions (alat units)
         1           Na  tau(   1) = (   1.7500000   1.7500000   1.7500000  )

     number of k points=     4  gaussian smearing, width (Ry)=  0.0030
                       cart. coord. in units 2pi/alat
        k(    1) = (   0.0000000   0.0000000   0.0000000), wk =   0.1250000
        k(    2) = (   0.0000000   0.0000000  -0.1428571), wk =   0.3750000
        k(    3) = (   0.0000000  -0.1428571  -0.1428571), wk =   0.3750000
        k(    4) = (  -0.1428571  -0.1428571  -0.1428571), wk =   0.1250000

     Dense  grid:   527625 G-vectors     FFT dimensions: ( 101, 101, 101)

     Estimated max dynamical RAM per process >     670.44Mb
     Generating pointlists ...
     new r_m :   0.4125 (alat units)  1.8563 (a.u.) for type    1
dfftp%nnr =1030301
    101    101    101    101    101    101
SIZE(dfftp%isind) =   10201
bg(1:3,1):   0.2857  0.0000  0.0000
bg(1:3,2):   0.0000  0.2857  0.0000
bg(1:3,3):   0.0000  0.0000  0.2857
at(1:3,1):   3.5000  0.0000  0.0000
at(1:3,2):   0.0000  3.5000  0.0000
at(1:3,3):   0.0000  0.0000  3.5000
nt =     1 na =    1
tau(:,na) =    1.75000   1.75000   1.75000
  k    rho_core(k)
       1   0.00000E+00
       2   0.00000E+00
       3   0.00000E+00
       4   0.00000E+00
       5   0.00000E+00
       6   0.00000E+00
       7   0.00000E+00
       8   0.00000E+00
       9   0.00000E+00
      10   0.00000E+00
      11   0.00000E+00
      12   0.00000E+00
      13   0.00000E+00
      14   0.00000E+00
      15   0.00000E+00
      16   0.00000E+00
      17   0.00000E+00
      18   0.00000E+00
      19   0.00000E+00
      20   0.00000E+00
      21   0.00000E+00
      22   0.00000E+00
      23   0.00000E+00
      24   0.00000E+00
      25   0.00000E+00
      26   0.00000E+00
      27   0.00000E+00
      28   0.00000E+00
      29   0.00000E+00
      30   0.00000E+00
      31   0.00000E+00
      32   0.00000E+00
      33   0.00000E+00
      34   0.00000E+00
      35   0.00000E+00
      36   0.00000E+00
      37   0.00000E+00
      38   0.00000E+00
      39   0.00000E+00
      40   0.00000E+00
      41   0.00000E+00
      42   0.00000E+00
      43   0.00000E+00
      44   0.00000E+00
      45   0.00000E+00
      46   0.00000E+00
      47   0.00000E+00
      48   0.00000E+00
      49   0.00000E+00
      50   0.00000E+00
      51   0.00000E+00
      52   0.00000E+00
      53   0.00000E+00
      54   0.00000E+00
      55   0.00000E+00
      56   0.00000E+00
      57   0.00000E+00
      58   0.00000E+00
      59   0.00000E+00
      60   0.00000E+00
      61   0.00000E+00
      62   0.00000E+00
      63   0.00000E+00
      64   0.00000E+00
      65   0.00000E+00
      66   0.00000E+00
      67   0.00000E+00
      68   0.00000E+00
      69   0.00000E+00
      70   0.00000E+00
      71   0.00000E+00
      72   0.00000E+00
      73   0.00000E+00
      74   0.00000E+00
      75   0.00000E+00
      76   0.00000E+00
      77   0.00000E+00
      78   0.00000E+00
      79   0.00000E+00
      80   0.00000E+00
      81   0.00000E+00
      82   0.00000E+00
      83   0.00000E+00
      84   0.00000E+00
      85   0.00000E+00
      86   0.00000E+00
      87   0.00000E+00
      88   0.00000E+00
      89   0.00000E+00
      90   0.00000E+00
      91   0.00000E+00
      92   0.00000E+00
      93   0.00000E+00
      94   0.00000E+00
      95   0.00000E+00
      96   0.00000E+00
      97   0.00000E+00
      98   0.00000E+00
      99   0.00000E+00
     100   0.00000E+00
     101   0.00000E+00
     102   0.00000E+00
     103   0.00000E+00
     104   0.00000E+00
     105   0.00000E+00
     106   0.00000E+00
     107   0.00000E+00
     108   0.00000E+00
     109   0.00000E+00
     110   0.00000E+00
     111   0.00000E+00
     112   0.00000E+00
     113   0.00000E+00
     114   0.00000E+00
     115   0.00000E+00
     116   0.00000E+00
     117   0.00000E+00
     118   0.00000E+00
     119   0.00000E+00
     120   0.00000E+00
     121   0.00000E+00
     122   0.00000E+00
     123   0.00000E+00
     124   0.00000E+00
     125   0.00000E+00
     126   0.00000E+00
     127   0.00000E+00
     128   0.00000E+00
     129   0.00000E+00
     130   0.00000E+00
     131   0.00000E+00
     132   0.00000E+00
     133   0.00000E+00
     134   0.00000E+00
     135   0.00000E+00
     136   0.00000E+00
     137   0.00000E+00
     138   0.00000E+00
     139   0.00000E+00
     140   0.00000E+00
     141   0.00000E+00
     142   0.00000E+00
     143   0.00000E+00
     144   0.00000E+00
     145   0.00000E+00
     146   0.00000E+00
     147   0.00000E+00
     148   0.00000E+00
     149   0.00000E+00
     150   0.00000E+00
     151   0.00000E+00
     152   0.00000E+00
     153   0.00000E+00
     154   0.00000E+00
     155   0.00000E+00
     156   0.00000E+00
     157   0.00000E+00
     158   0.00000E+00
     159   0.00000E+00
     160   0.00000E+00
     161   0.00000E+00
     162   0.00000E+00
     163   0.00000E+00
     164   0.00000E+00
     165   0.00000E+00
     166   0.00000E+00
     167   0.00000E+00
     168   0.00000E+00
     169   0.00000E+00
     170   0.00000E+00
     171   0.00000E+00
     172   0.00000E+00
     173   0.00000E+00
     174   0.00000E+00
     175   0.00000E+00
     176   0.00000E+00
     177   0.00000E+00
     178   0.00000E+00
     179   0.00000E+00
     180   0.00000E+00
     181   0.00000E+00
     182   0.00000E+00
     183   0.00000E+00
     184   0.00000E+00
     185   0.00000E+00
     186   0.00000E+00
     187   0.00000E+00
     188   0.00000E+00
     189   0.00000E+00
     190   0.00000E+00
     191   0.00000E+00
     192   0.00000E+00
     193   0.00000E+00
     194   0.00000E+00
     195   0.00000E+00
     196   0.00000E+00
     197   0.00000E+00
     198   0.00000E+00
     199   0.00000E+00
     200   0.00000E+00
     201   0.00000E+00
     202   0.00000E+00
     203   0.00000E+00
     204   0.00000E+00
     205   0.00000E+00
     206   0.00000E+00
     207   0.00000E+00
     208   0.00000E+00
     209   0.00000E+00
     210   0.00000E+00
     211   0.00000E+00
     212   0.00000E+00
     213   0.00000E+00
     214   0.00000E+00
     215   0.00000E+00
     216   0.00000E+00
     217   0.00000E+00
     218   0.00000E+00
     219   0.00000E+00
     220   0.00000E+00
     221   0.00000E+00
     222   0.00000E+00
     223   0.00000E+00
     224   0.00000E+00
     225   0.00000E+00
     226   0.00000E+00
     227   0.00000E+00
     228   0.00000E+00
     229   0.00000E+00
     230   0.00000E+00
     231   0.00000E+00
     232   0.00000E+00
     233   0.00000E+00
     234   0.00000E+00
     235   0.00000E+00
     236   0.00000E+00
     237   0.00000E+00
     238   0.00000E+00
     239   0.00000E+00
     240   0.00000E+00
     241   0.00000E+00
     242   0.00000E+00
     243   0.00000E+00
     244   0.00000E+00
     245   0.00000E+00
     246   0.00000E+00
     247   0.00000E+00
     248   0.00000E+00
     249   0.00000E+00
     250   0.00000E+00
     251   0.00000E+00
     252   0.00000E+00
     253   0.00000E+00
     254   0.00000E+00
     255   0.00000E+00
     256   0.00000E+00
     257   0.00000E+00
     258   0.00000E+00
     259   0.00000E+00
     260   0.00000E+00
     261   0.00000E+00
     262   0.00000E+00
     263   0.00000E+00
     264   0.00000E+00
     265   0.00000E+00
     266   0.00000E+00
     267   0.00000E+00
     268   0.00000E+00
     269   0.00000E+00
     270   0.00000E+00
     271   0.00000E+00
     272   0.00000E+00
     273   0.00000E+00
     274   0.00000E+00
     275   0.00000E+00
     276   0.00000E+00
     277   0.00000E+00
     278   0.00000E+00
     279   0.00000E+00
     280   0.00000E+00
     281   0.00000E+00
     282   0.00000E+00
     283   0.00000E+00
     284   0.00000E+00
     285   0.00000E+00
     286   0.00000E+00
     287   0.00000E+00
     288   0.00000E+00
     289   0.00000E+00
     290   0.00000E+00
     291   0.00000E+00
     292   0.00000E+00
     293   0.00000E+00
     294   0.00000E+00
     295   0.00000E+00
     296   0.00000E+00
     297   0.00000E+00
     298   0.00000E+00
     299   0.00000E+00
     300   0.00000E+00
  ------------ 
  k    averhoc
           1  4.101843365283456E-012
           2  4.560956618740805E-012
           3  6.033305057173498E-012
           4  8.853139846162892E-012
           5  1.364729461983867E-011
           6  2.147705674127238E-011
           7  3.409852455062247E-011
           8  5.433993086398391E-011
           9  8.671391344833613E-011
          10  1.384566055648593E-010
          11  2.211089011644672E-010
          12  3.532329841225235E-010
          13  5.643927091076394E-010
          14  9.018890926965958E-010
          15  1.441380555306927E-009
          16  2.304283795954103E-009
          17  3.684919643290069E-009
          18  5.893841720645323E-009
          19  9.429188397179043E-009
          20  1.509346806926752E-008
          21  2.416622862469770E-008
          22  3.871517214947806E-008
          23  6.206034684427998E-008
          24  9.950343597964832E-008
          25  1.597188446281834E-007
          26  2.564975021545235E-007
          27  4.122792579329212E-007
          28  6.634291101129116E-007
          29  1.069074900515718E-006
          30  1.724882419813795E-006
          31  2.787156559992317E-006
          32  4.511896238896617E-006
          33  7.320782537151305E-006
          34  1.190723573594049E-005
          35  1.941916513923225E-005
          36  3.176948613441751E-005
          37  5.215342587936594E-005
          38  8.591432916700529E-005
          39  1.404826032433126E-004
          40  2.165505928325481E-004
          41  3.109211878729052E-004
          42  4.195957030797300E-004
          43  5.379358211477197E-004
          44  6.609429906400549E-004
          45  7.833608412844754E-004
          46  9.000241434603868E-004
          47  1.005936422833874E-003
          48  1.096676972322620E-003
          49  1.168290172255652E-003
          50  1.217775058427062E-003
          51  1.243071612823244E-003
          52  1.243071612823244E-003
          53  1.217775058427062E-003
          54  1.168290172255652E-003
          55  1.096676972322620E-003
          56  1.005936422833874E-003
          57  9.000241434603868E-004
          58  7.833608412844754E-004
          59  6.609429906400549E-004
          60  5.379358211477197E-004
          61  4.195957030797300E-004
          62  3.109211878729052E-004
          63  2.165505928325474E-004
          64  1.404826032433124E-004
          65  8.591432916700488E-005
          66  5.215342587936610E-005
          67  3.176948613441763E-005
          68  1.941916513923231E-005
          69  1.190723573594054E-005
          70  7.320782537151305E-006
          71  4.511896238896617E-006
          72  2.787156559992317E-006
          73  1.724882419813795E-006
          74  1.069074900515718E-006
          75  6.634291101129105E-007
          76  4.122792579329205E-007
          77  2.564975021545232E-007
          78  1.597188446281833E-007
          79  9.950343597964795E-008
          80  6.206034684427981E-008
          81  3.871517214947820E-008
          82  2.416622862469779E-008
          83  1.509346806926752E-008
          84  9.429188397179043E-009
          85  5.893841720645323E-009
          86  3.684919643290069E-009
          87  2.304283795954103E-009
          88  1.441380555306927E-009
          89  9.018890926965958E-010
          90  5.643927091076394E-010
          91  3.532329841225235E-010
          92  2.211089011644672E-010
          93  1.384566055648590E-010
          94  8.671391344833584E-011
          95  5.433993086398410E-011
          96  3.409852455062263E-011
          97  2.147705674127246E-011
          98  1.364729461983867E-011
          99  8.853139846162892E-012
         100  6.033305057173498E-012
         101  4.560956618740805E-012
  ------------ 
  k    rhog_core(k)
       1   0.19647E-03  -0.23707E-20
       2  -0.18332E-03   0.21551E-20
       3  -0.18332E-03   0.40948E-20
       4  -0.18332E-03   0.22912E-20
       5  -0.18332E-03  -0.28853E-20
       6  -0.18332E-03  -0.25862E-20
       7  -0.18332E-03  -0.64654E-21
       8   0.17098E-03  -0.12715E-19
       9   0.17098E-03  -0.18052E-19
      10   0.17098E-03  -0.81041E-21
      11   0.17098E-03  -0.36637E-20
      12   0.17098E-03  -0.18052E-19
      13   0.17098E-03  -0.51166E-20
      14   0.17098E-03  -0.51207E-20
      15   0.17098E-03   0.35040E-20
      16   0.17098E-03  -0.77585E-20
      17   0.17098E-03  -0.77069E-20
      18   0.17098E-03   0.86681E-20
      19   0.17098E-03  -0.36637E-20
      20  -0.15941E-03   0.10894E-19
      21  -0.15941E-03   0.31392E-20
      22  -0.15941E-03   0.11760E-19
      23  -0.15941E-03  -0.46193E-20
      24  -0.15941E-03   0.13480E-19
      25  -0.15941E-03   0.39971E-20
      26  -0.15941E-03  -0.80717E-20
      27  -0.15941E-03  -0.10658E-19
      28   0.14855E-03  -0.81895E-20
      29   0.14855E-03  -0.17780E-19
      30   0.14855E-03  -0.13944E-19
      31   0.14855E-03   0.67458E-20
      32   0.14855E-03   0.35560E-20
      33   0.14855E-03   0.79740E-20
      34  -0.13836E-03   0.16271E-19
      35  -0.13836E-03   0.16691E-19
      36  -0.13836E-03   0.37604E-20
      37  -0.13836E-03  -0.96981E-21
      38  -0.13836E-03   0.13362E-19
      39  -0.13836E-03   0.98415E-20
      40  -0.13836E-03  -0.50316E-21
      41  -0.13836E-03  -0.66809E-20
      42  -0.13836E-03   0.20140E-19
      43  -0.13836E-03   0.80707E-20
      44  -0.13836E-03   0.23634E-19
      45  -0.13836E-03  -0.50316E-21
      46  -0.13836E-03   0.13290E-19
      47  -0.13836E-03  -0.14296E-19
      48  -0.13836E-03   0.72045E-20
      49  -0.13836E-03  -0.10037E-19
      50  -0.13836E-03   0.12931E-20
      51  -0.13836E-03   0.29451E-20
      52  -0.13836E-03  -0.14296E-19
      53  -0.13836E-03  -0.12931E-19
      54  -0.13836E-03  -0.28017E-20
      55  -0.13836E-03  -0.10895E-19
      56  -0.13836E-03  -0.12623E-19
      57  -0.13836E-03  -0.18642E-19
      58   0.12879E-03  -0.16582E-19
      59   0.12879E-03  -0.15716E-19
      60   0.12879E-03  -0.16578E-19
      61   0.12879E-03  -0.79571E-20
      62   0.12879E-03  -0.15720E-19
      63   0.12879E-03  -0.96812E-20
      64   0.12879E-03  -0.16912E-19
      65   0.12879E-03   0.37771E-20
      66   0.12879E-03  -0.65675E-20
      67   0.12879E-03   0.37771E-20
      68   0.12879E-03  -0.19860E-21
      69   0.12879E-03   0.58358E-20
      70   0.12879E-03  -0.18302E-19
      71   0.12879E-03  -0.19227E-20
      72   0.12879E-03  -0.31193E-20
      73   0.12879E-03   0.37771E-20
      74   0.12879E-03  -0.31193E-20
      75   0.12879E-03   0.10674E-19
      76   0.12879E-03   0.58358E-20
      77   0.12879E-03   0.16180E-19
      78   0.12879E-03  -0.10607E-20
      79   0.12879E-03   0.58358E-20
      80   0.12879E-03   0.11008E-19
      81   0.12879E-03   0.16185E-19
      82   0.11141E-03  -0.13254E-19
      83   0.11141E-03  -0.30633E-20
      84   0.11141E-03   0.39740E-21
      85   0.11141E-03   0.32327E-21
      86   0.11141E-03  -0.15120E-19
      87   0.11141E-03  -0.47874E-20
      88   0.11141E-03   0.90055E-20
      89   0.11141E-03   0.17639E-19
      90   0.11141E-03   0.17241E-20
      91   0.11141E-03   0.10730E-19
      92   0.11141E-03   0.19363E-19
      93   0.11141E-03   0.12284E-19
      94  -0.10352E-03   0.10776E-21
      95  -0.10352E-03   0.12532E-19
      96  -0.10352E-03   0.30494E-20
      97  -0.10352E-03   0.13021E-19
      98  -0.10352E-03   0.44008E-20
      99  -0.10352E-03   0.16457E-19
     100  -0.10352E-03  -0.42198E-20
  527525  -0.25071E-08   0.18928E-21
  527526  -0.25071E-08   0.11751E-21
  527527  -0.25071E-08   0.12626E-21
  527528  -0.33713E-08  -0.90588E-22
  527529  -0.33713E-08  -0.43335E-22
  527530  -0.33713E-08  -0.96758E-24
  527531  -0.33713E-08   0.47603E-22
  527532  -0.25071E-08   0.11725E-21
  527533  -0.25071E-08   0.12534E-21
  527534  -0.25071E-08   0.21662E-21
  527535  -0.25071E-08   0.11907E-21
  527536  -0.33713E-08   0.16288E-21
  527537  -0.33713E-08   0.27711E-21
  527538  -0.22376E-08   0.26404E-21
  527539  -0.22376E-08   0.30941E-21
  527540  -0.22376E-08  -0.69657E-22
  527541  -0.22376E-08   0.33736E-22
  527542  -0.22376E-08  -0.10879E-21
  527543  -0.22376E-08  -0.65887E-23
  527544  -0.22376E-08   0.23626E-21
  527545  -0.22376E-08   0.27870E-21
  527546  -0.24042E-08   0.40047E-21
  527547  -0.24042E-08   0.14617E-21
  527548  -0.24042E-08   0.32608E-24
  527549  -0.24042E-08   0.23986E-21
  527550  -0.24042E-08  -0.18206E-21
  527551  -0.24042E-08   0.61718E-22
  527552  -0.24042E-08   0.62380E-21
  527553  -0.24042E-08   0.36793E-21
  527554  -0.15061E-08  -0.84827E-21
  527555  -0.15061E-08  -0.55386E-21
  527556  -0.15061E-08  -0.89352E-21
  527557  -0.15061E-08  -0.11379E-20
  527558  -0.15061E-08  -0.77136E-21
  527559  -0.15061E-08  -0.10167E-20
  527560  -0.15061E-08  -0.10557E-20
  527561  -0.15061E-08  -0.76313E-21
  527562  -0.15061E-08  -0.59096E-21
  527563  -0.15061E-08  -0.38242E-21
  527564  -0.15061E-08  -0.54099E-21
  527565  -0.15061E-08  -0.74249E-21
  527566  -0.15061E-08  -0.36120E-21
  527567  -0.15061E-08  -0.56886E-21
  527568  -0.15061E-08  -0.97521E-21
  527569  -0.15061E-08  -0.76998E-21
  527570  -0.24042E-08   0.24649E-21
  527571  -0.24042E-08   0.82791E-22
  527572  -0.24042E-08  -0.86646E-22
  527573  -0.24042E-08  -0.22565E-21
  527574  -0.24042E-08  -0.86938E-22
  527575  -0.24042E-08  -0.22589E-21
  527576  -0.24042E-08   0.28562E-21
  527577  -0.24042E-08   0.12371E-21
  527578  -0.22376E-08  -0.39195E-21
  527579  -0.22376E-08  -0.34793E-21
  527580  -0.22376E-08  -0.16482E-23
  527581  -0.22376E-08  -0.24632E-23
  527582  -0.22376E-08  -0.67058E-22
  527583  -0.22376E-08  -0.65386E-22
  527584  -0.22376E-08  -0.10997E-21
  527585  -0.22376E-08  -0.61870E-22
  527586  -0.25071E-08   0.52112E-21
  527587  -0.25071E-08   0.43967E-21
  527588  -0.25071E-08   0.12056E-21
  527589  -0.25071E-08   0.31952E-21
  527590  -0.25071E-08   0.82620E-22
  527591  -0.25071E-08   0.27964E-21
  527592  -0.25071E-08   0.43786E-21
  527593  -0.25071E-08   0.35599E-21
  527594  -0.33713E-08  -0.27438E-21
  527595  -0.33713E-08  -0.24392E-21
  527596  -0.33713E-08  -0.23842E-21
  527597  -0.33713E-08  -0.62198E-22
  527598  -0.33713E-08  -0.14947E-21
  527599  -0.33713E-08   0.32180E-22
  527600  -0.33713E-08  -0.21662E-21
  527601  -0.33713E-08  -0.18124E-21
  527602  -0.38713E-08  -0.60176E-21
  527603  -0.38713E-08  -0.46151E-21
  527604  -0.38713E-08  -0.61653E-21
  527605  -0.38713E-08  -0.50106E-21
  527606  -0.38713E-08  -0.43847E-21
  527607  -0.38713E-08  -0.32364E-21
  527608  -0.38713E-08  -0.44932E-21
  527609  -0.38713E-08  -0.31005E-21
  527610  -0.16877E-08   0.19040E-22
  527611  -0.16877E-08   0.14266E-21
  527612  -0.16877E-08   0.29355E-21
  527613  -0.16877E-08   0.45149E-21
  527614  -0.16877E-08   0.25097E-21
  527615  -0.16877E-08   0.41719E-21
  527616  -0.16877E-08   0.15081E-21
  527617  -0.16877E-08   0.28460E-21
  527618  -0.22159E-08   0.12584E-22
  527619  -0.22159E-08  -0.14473E-21
  527620  -0.22159E-08   0.10838E-21
  527621  -0.22159E-08  -0.33319E-22
  527622  -0.22159E-08   0.94983E-23
  527623  -0.22159E-08  -0.13764E-21
  527624  -0.22159E-08  -0.89172E-22
  527625  -0.22159E-08  -0.25269E-21
  ------------ 

     Initial potential from superposition of free atoms

     starting charge    0.99448, renormalised to    1.00000

     negative rho (up, down):  1.618E-05 1.586E-05
     Starting wfc are    4 randomized atomic wfcs +    6 random wfc

     total cpu time spent up to now is       29.3 secs

     per-process dynamical memory:   375.3 Mb

     Self-consistent Calculation

     iteration #  1     ecut=   100.00 Ry     beta=0.70
     Davidson diagonalization with overlap
     ethr =  1.00E-02,  avg # of iterations = 10.5

     Threshold (ethr) on eigenvalues was too large:
     Diagonalizing with lowered threshold

     Davidson diagonalization with overlap
     ethr =  2.14E-05,  avg # of iterations =  9.9

     total cpu time spent up to now is      153.2 secs

     total energy              =      -0.73444422 Ry
     Harris-Foulkes estimate   =      -0.73435478 Ry
     estimated scf accuracy    <       0.00021805 Ry

     total magnetization       =     0.02 Bohr mag/cell
     absolute magnetization    =     0.02 Bohr mag/cell

     iteration #  2     ecut=   100.00 Ry     beta=0.70
     Davidson diagonalization with overlap
     ethr =  2.18E-05,  avg # of iterations =  5.1

     total cpu time spent up to now is      191.6 secs

     total energy              =      -0.73445959 Ry
     Harris-Foulkes estimate   =      -0.73445114 Ry
     estimated scf accuracy    <       0.00011653 Ry

     total magnetization       =     0.04 Bohr mag/cell
     absolute magnetization    =     0.04 Bohr mag/cell

     iteration #  3     ecut=   100.00 Ry     beta=0.70
     Davidson diagonalization with overlap
     ethr =  1.17E-05,  avg # of iterations =  3.4

     total cpu time spent up to now is      227.3 secs

     total energy              =      -0.73461925 Ry
     Harris-Foulkes estimate   =      -0.73457233 Ry
     estimated scf accuracy    <       0.00001013 Ry

     total magnetization       =     0.19 Bohr mag/cell
     absolute magnetization    =     0.19 Bohr mag/cell

     iteration #  4     ecut=   100.00 Ry     beta=0.70
     Davidson diagonalization with overlap
     ethr =  1.01E-06,  avg # of iterations =  4.5

     total cpu time spent up to now is      262.7 secs

     total energy              =      -0.73432977 Ry
     Harris-Foulkes estimate   =      -0.73463128 Ry
     estimated scf accuracy    <       0.00001512 Ry

     total magnetization       =     0.24 Bohr mag/cell
     absolute magnetization    =     0.24 Bohr mag/cell

     iteration #  5     ecut=   100.00 Ry     beta=0.70
     Davidson diagonalization with overlap
     ethr =  1.01E-06,  avg # of iterations =  3.2
 
     Magnetic moment per site:
     atom:    1    charge:    0.0762    magn:    0.0052    constr:    0.0000

     total cpu time spent up to now is      295.8 secs

     End of self-consistent calculation

 ------ SPIN UP ------------


          k = 0.0000 0.0000 0.0000 ( 65867 PWs)   bands (ev):

    -2.7616  -0.2199  -0.2199  -0.2199  -0.0546   0.6788   0.6788   2.2959
     2.2960   2.2960

          k = 0.0000 0.0000-0.1429 ( 65954 PWs)   bands (ev):

    -2.6610  -1.0491  -0.0993  -0.0993   0.4330   0.9356   1.0825   1.3590
     1.3590   1.6910

          k = 0.0000-0.1429-0.1429 ( 65936 PWs)   bands (ev):

    -2.5705  -0.8506  -0.8506   0.0056   0.1231   0.9180   1.6094   1.6094
     1.6230   1.6230

          k =-0.1429-0.1429-0.1429 ( 66088 PWs)   bands (ev):

    -2.4877  -0.6808  -0.6808  -0.6808   0.4538   0.4538   0.4538   0.9585
     2.7955   2.7955

 ------ SPIN DOWN ----------


          k = 0.0000 0.0000 0.0000 ( 65867 PWs)   bands (ev):

    -2.7431  -0.2046  -0.2046  -0.2046  -0.0485   0.6852   0.6852   2.3024
     2.3024   2.3024

          k = 0.0000 0.0000-0.1429 ( 65954 PWs)   bands (ev):

    -2.6415  -1.0395  -0.0827  -0.0827   0.4398   0.9435   1.0894   1.3650
     1.3650   1.6932

          k = 0.0000-0.1429-0.1429 ( 65936 PWs)   bands (ev):

    -2.5500  -0.8391  -0.8391   0.0233   0.1260   0.9263   1.6158   1.6158
     1.6306   1.6306

          k =-0.1429-0.1429-0.1429 ( 66088 PWs)   bands (ev):

    -2.4664  -0.6676  -0.6676  -0.6676   0.4578   0.4578   0.4578   0.9592
     2.8081   2.8081

     the Fermi energy is    -2.6059 ev

!    total energy              =      -0.73450719 Ry
     Harris-Foulkes estimate   =      -0.73449058 Ry
     estimated scf accuracy    <       0.00000079 Ry

     The total energy is the sum of the following terms:

     one-electron contribution =      -0.02483183 Ry
     hartree contribution      =       0.05683102 Ry
     xc contribution           =      -0.58596284 Ry
     ewald contribution        =      -0.18014587 Ry
     smearing contrib. (-TS)   =      -0.00039767 Ry

     total magnetization       =     0.06 Bohr mag/cell
     absolute magnetization    =     0.06 Bohr mag/cell

     convergence has been achieved in   5 iterations

     Forces acting on atoms (Ry/au):

     atom    1 type  1   force =     0.00000000    0.00000000    0.00000000

     Total force =     0.000000     Total SCF correction =     0.000000


     entering subroutine stress ...

          total   stress  (Ry/bohr**3)                   (kbar)     P=   -0.43
  -0.00000293   0.00000000   0.00000000         -0.43      0.00      0.00
   0.00000000  -0.00000293   0.00000000          0.00     -0.43      0.00
   0.00000000   0.00000000  -0.00000293          0.00      0.00     -0.43


     Writing output data file Na.save
 
     init_run     :     13.02s CPU     28.13s WALL (       1 calls)
     electrons    :    223.00s CPU    266.58s WALL (       1 calls)
     forces       :      0.40s CPU      0.43s WALL (       1 calls)
     stress       :      0.80s CPU      0.83s WALL (       1 calls)

     Called by init_run:
     wfcinit      :      7.20s CPU      7.41s WALL (       1 calls)
     potinit      :      0.40s CPU      0.47s WALL (       1 calls)

     Called by electrons:
     c_bands      :    174.73s CPU    175.47s WALL (       6 calls)
     sum_band     :     28.18s CPU     70.49s WALL (       6 calls)
     v_of_rho     :      1.06s CPU      1.10s WALL (       6 calls)
     mix_rho      :     19.00s CPU     19.35s WALL (       6 calls)

     Called by c_bands:
     init_us_2    :      0.25s CPU      0.26s WALL (     120 calls)
     cegterg      :    174.46s CPU    175.16s WALL (      48 calls)

     Called by sum_band:

     Called by *egterg:
     h_psi        :    174.23s CPU    174.29s WALL (     349 calls)
     g_psi        :      0.62s CPU      0.58s WALL (     293 calls)
     cdiaghg      :      0.09s CPU      0.19s WALL (     333 calls)

     Called by h_psi:
     h_psi:pot    :    173.76s CPU    173.82s WALL (     349 calls)
     h_psi:calbec :      0.21s CPU      0.23s WALL (     349 calls)
     vloc_psi     :    173.33s CPU    173.35s WALL (     349 calls)
     add_vuspsi   :      0.21s CPU      0.24s WALL (     349 calls)

     General routines
     calbec       :      0.25s CPU      0.26s WALL (     389 calls)
     fft          :      2.18s CPU      2.31s WALL (      52 calls)
     ffts         :     12.47s CPU     12.43s WALL (     296 calls)
     fftw         :    188.62s CPU    188.57s WALL (    4488 calls)
     davcio       :      0.00s CPU      0.13s WALL (       8 calls)
 
 
     PWSCF        :  3m57.37s CPU     4m57.68s WALL

 
   This run was terminated on:  16:20: 9  15Jul2018            

=------------------------------------------------------------------------------=
   JOB DONE.
=------------------------------------------------------------------------------=
